<?xml version="1.0" encoding="UTF-8"?>

<!-- generated on 2021-10-08 22:31:32 by Eclipse SUMO sumo Version 1.10.0
<configuration xmlns:xsi="http://www.w3.org/2001/XMLSchema-instance" xsi:noNamespaceSchemaLocation="http://sumo.dlr.de/xsd/sumoConfiguration.xsd">

    <input>
        <net-file value="data/cross.net.xml"/>
        <route-files value="data/cross.rou.xml"/>
        <additional-files value="data/cross.tls.xml"/>
    </input>

    <output>
        <tripinfo-output value="tripinfo.xml"/>
    </output>

    <time>
        <begin value="0"/>
    </time>

    <report>
        <verbose value="true"/>
        <no-step-log value="true"/>
    </report>

    <traci_server>
        <remote-port value="53008"/>
    </traci_server>

</configuration>
-->

<tripinfos xmlns:xsi="http://www.w3.org/2001/XMLSchema-instance" xsi:noNamespaceSchemaLocation="http://sumo.dlr.de/xsd/tripinfo_file.xsd">
    <tripinfo id="rightW_4" depart="10.00" departLane="edgeW_O_0" departPos="5.10" departSpeed="0.00" departDelay="0.00" arrival="98.00" arrivalLane="edgeS_I_0" arrivalPos="486.40" arrivalSpeed="11.14" duration="88.00" routeLength="970.33" waitingTime="0.00" waitingCount="0" stopTime="0.00" timeLoss="19.50" rerouteNo="0" devices="tripinfo_rightW_4" vType="length_5" speedFactor="1.03" vaporized=""/>
    <tripinfo id="uturnE_0" depart="1.00" departLane="edgeE_O_2" departPos="5.10" departSpeed="0.00" departDelay="0.00" arrival="105.00" arrivalLane="edgeE_I_0" arrivalPos="480.00" arrivalSpeed="11.64" duration="104.00" routeLength="959.58" waitingTime="11.00" waitingCount="1" stopTime="0.00" timeLoss="37.97" rerouteNo="0" devices="tripinfo_uturnE_0" vType="length_5" speedFactor="1.06" vaporized=""/>
    <tripinfo id="straightE_3" depart="8.00" departLane="edgeE_O_2" departPos="5.10" departSpeed="0.00" departDelay="0.00" arrival="110.00" arrivalLane="edgeW_I_1" arrivalPos="480.00" arrivalSpeed="11.52" duration="102.00" routeLength="994.90" waitingTime="3.00" waitingCount="1" stopTime="0.00" timeLoss="36.00" rerouteNo="0" devices="tripinfo_straightE_3" vType="length_5" speedFactor="1.08" vaporized=""/>
    <tripinfo id="straightE_2" depart="4.00" departLane="edgeE_O_0" departPos="5.10" departSpeed="0.00" departDelay="1.00" arrival="111.00" arrivalLane="edgeW_I_0" arrivalPos="480.00" arrivalSpeed="10.99" duration="107.00" routeLength="994.90" waitingTime="6.00" waitingCount="1" stopTime="0.00" timeLoss="35.38" rerouteNo="0" devices="tripinfo_straightE_2" vType="length_5" speedFactor="1.01" vaporized=""/>
    <tripinfo id="uturnE_6" depart="13.00" departLane="edgeE_O_2" departPos="5.10" departSpeed="0.00" departDelay="2.00" arrival="112.00" arrivalLane="edgeE_I_0" arrivalPos="480.00" arrivalSpeed="11.44" duration="99.00" routeLength="959.58" waitingTime="2.00" waitingCount="1" stopTime="0.00" timeLoss="31.38" rerouteNo="0" devices="tripinfo_uturnE_6" vType="length_5" speedFactor="1.05" vaporized=""/>
    <tripinfo id="straightE_1" depart="3.00" departLane="edgeE_O_1" departPos="5.10" departSpeed="0.00" departDelay="1.00" arrival="114.00" arrivalLane="edgeW_I_0" arrivalPos="480.00" arrivalSpeed="10.09" duration="111.00" routeLength="994.90" waitingTime="8.00" waitingCount="1" stopTime="0.00" timeLoss="34.23" rerouteNo="0" devices="tripinfo_straightE_1" vType="length_5" speedFactor="0.94" vaporized=""/>
    <tripinfo id="leftE_10" depart="23.00" departLane="edgeE_O_2" departPos="5.10" departSpeed="0.00" departDelay="0.00" arrival="116.00" arrivalLane="edgeS_I_1" arrivalPos="486.40" arrivalSpeed="11.74" duration="93.00" routeLength="993.92" waitingTime="0.00" waitingCount="0" stopTime="0.00" timeLoss="26.55" rerouteNo="0" devices="tripinfo_leftE_10" vType="length_5" speedFactor="1.09" vaporized=""/>
    <tripinfo id="leftE_8" depart="18.00" departLane="edgeE_O_2" departPos="5.10" departSpeed="0.00" departDelay="0.00" arrival="121.00" arrivalLane="edgeS_I_0" arrivalPos="486.40" arrivalSpeed="10.17" duration="103.00" routeLength="993.92" waitingTime="0.00" waitingCount="0" stopTime="0.00" timeLoss="25.26" rerouteNo="0" devices="tripinfo_leftE_8" vType="length_5" speedFactor="0.94" vaporized=""/>
    <tripinfo id="uturnE_14" depart="28.00" departLane="edgeE_O_2" departPos="5.10" departSpeed="0.00" departDelay="2.00" arrival="122.00" arrivalLane="edgeE_I_0" arrivalPos="480.00" arrivalSpeed="10.62" duration="94.00" routeLength="959.58" waitingTime="0.00" waitingCount="0" stopTime="0.00" timeLoss="22.97" rerouteNo="0" devices="tripinfo_uturnE_14" vType="length_5" speedFactor="0.99" vaporized=""/>
    <tripinfo id="uturnW_15" depart="27.00" departLane="edgeW_O_2" departPos="5.10" departSpeed="0.00" departDelay="0.00" arrival="123.00" arrivalLane="edgeW_I_0" arrivalPos="480.00" arrivalSpeed="10.18" duration="96.00" routeLength="959.58" waitingTime="0.00" waitingCount="0" stopTime="0.00" timeLoss="20.82" rerouteNo="0" devices="tripinfo_uturnW_15" vType="length_5" speedFactor="0.93" vaporized=""/>
    <tripinfo id="straightE_16" depart="30.00" departLane="edgeE_O_1" departPos="5.10" departSpeed="0.00" departDelay="0.00" arrival="126.00" arrivalLane="edgeW_I_0" arrivalPos="480.00" arrivalSpeed="9.37" duration="96.00" routeLength="994.90" waitingTime="0.00" waitingCount="0" stopTime="0.00" timeLoss="14.71" rerouteNo="0" devices="tripinfo_straightE_16" vType="length_5" speedFactor="0.88" vaporized=""/>
    <tripinfo id="leftE_17" depart="35.00" departLane="edgeE_O_2" departPos="5.10" departSpeed="0.00" departDelay="0.00" arrival="127.00" arrivalLane="edgeS_I_0" arrivalPos="486.40" arrivalSpeed="10.17" duration="92.00" routeLength="993.92" waitingTime="0.00" waitingCount="0" stopTime="0.00" timeLoss="14.90" rerouteNo="0" devices="tripinfo_leftE_17" vType="length_5" speedFactor="0.94" vaporized=""/>
    <tripinfo id="uturnE_19" depart="45.00" departLane="edgeE_O_2" departPos="5.10" departSpeed="0.00" departDelay="4.00" arrival="131.00" arrivalLane="edgeE_I_0" arrivalPos="480.00" arrivalSpeed="12.49" duration="86.00" routeLength="959.58" waitingTime="0.00" waitingCount="0" stopTime="0.00" timeLoss="25.56" rerouteNo="0" devices="tripinfo_uturnE_19" vType="length_5" speedFactor="1.16" vaporized=""/>
    <tripinfo id="leftE_18" depart="40.00" departLane="edgeE_O_2" departPos="5.10" departSpeed="0.00" departDelay="4.00" arrival="133.00" arrivalLane="edgeS_I_0" arrivalPos="486.40" arrivalSpeed="10.06" duration="93.00" routeLength="993.92" waitingTime="0.00" waitingCount="0" stopTime="0.00" timeLoss="15.34" rerouteNo="0" devices="tripinfo_leftE_18" vType="length_5" speedFactor="0.94" vaporized=""/>
    <tripinfo id="uturnW_20" depart="42.00" departLane="edgeW_O_2" departPos="5.10" departSpeed="0.00" departDelay="0.00" arrival="134.00" arrivalLane="edgeW_I_0" arrivalPos="480.00" arrivalSpeed="11.11" duration="92.00" routeLength="959.58" waitingTime="0.00" waitingCount="0" stopTime="0.00" timeLoss="22.92" rerouteNo="0" devices="tripinfo_uturnW_20" vType="length_5" speedFactor="1.02" vaporized=""/>
    <tripinfo id="uturnW_21" depart="47.00" departLane="edgeW_O_2" departPos="5.10" departSpeed="0.00" departDelay="1.00" arrival="139.00" arrivalLane="edgeW_I_0" arrivalPos="480.00" arrivalSpeed="10.99" duration="92.00" routeLength="959.58" waitingTime="0.00" waitingCount="0" stopTime="0.00" timeLoss="22.94" rerouteNo="0" devices="tripinfo_uturnW_21" vType="length_5" speedFactor="1.01" vaporized=""/>
    <tripinfo id="leftE_22" depart="50.00" departLane="edgeE_O_2" departPos="5.10" departSpeed="0.00" departDelay="4.00" arrival="141.00" arrivalLane="edgeS_I_0" arrivalPos="486.40" arrivalSpeed="10.34" duration="91.00" routeLength="993.92" waitingTime="0.00" waitingCount="0" stopTime="0.00" timeLoss="16.40" rerouteNo="0" devices="tripinfo_leftE_22" vType="length_5" speedFactor="0.98" vaporized=""/>
    <tripinfo id="straightE_26" depart="51.00" departLane="edgeE_O_1" departPos="5.10" departSpeed="0.00" departDelay="0.00" arrival="145.00" arrivalLane="edgeW_I_0" arrivalPos="480.00" arrivalSpeed="9.93" duration="94.00" routeLength="994.90" waitingTime="0.00" waitingCount="0" stopTime="0.00" timeLoss="16.06" rerouteNo="0" devices="tripinfo_straightE_26" vType="length_5" speedFactor="0.92" vaporized=""/>
    <tripinfo id="straightW_31" depart="60.00" departLane="edgeW_O_1" departPos="5.10" departSpeed="0.00" departDelay="0.00" arrival="147.00" arrivalLane="edgeE_I_0" arrivalPos="480.00" arrivalSpeed="12.64" duration="87.00" routeLength="994.90" waitingTime="0.00" waitingCount="0" stopTime="0.00" timeLoss="24.64" rerouteNo="0" devices="tripinfo_straightW_31" vType="length_5" speedFactor="1.15" vaporized=""/>
    <tripinfo id="leftE_23" depart="55.00" departLane="edgeE_O_2" departPos="5.10" departSpeed="0.00" departDelay="7.00" arrival="151.00" arrivalLane="edgeS_I_0" arrivalPos="486.40" arrivalSpeed="9.72" duration="96.00" routeLength="993.92" waitingTime="0.00" waitingCount="0" stopTime="0.00" timeLoss="15.05" rerouteNo="0" devices="tripinfo_leftE_23" vType="length_5" speedFactor="0.89" vaporized=""/>
    <tripinfo id="uturnW_25" depart="52.00" departLane="edgeW_O_2" departPos="5.10" departSpeed="0.00" departDelay="1.00" arrival="152.00" arrivalLane="edgeW_I_0" arrivalPos="480.00" arrivalSpeed="9.40" duration="100.00" routeLength="959.58" waitingTime="0.00" waitingCount="0" stopTime="0.00" timeLoss="20.10" rerouteNo="0" devices="tripinfo_uturnW_25" vType="length_5" speedFactor="0.87" vaporized=""/>
    <tripinfo id="uturnW_29" depart="58.00" departLane="edgeW_O_2" departPos="5.10" departSpeed="0.00" departDelay="0.00" arrival="154.00" arrivalLane="edgeW_I_0" arrivalPos="480.00" arrivalSpeed="9.94" duration="96.00" routeLength="959.58" waitingTime="0.00" waitingCount="0" stopTime="0.00" timeLoss="20.92" rerouteNo="0" devices="tripinfo_uturnW_29" vType="length_5" speedFactor="0.93" vaporized=""/>
    <tripinfo id="rightE_13" depart="26.00" departLane="edgeE_O_0" departPos="5.10" departSpeed="0.00" departDelay="1.00" arrival="164.00" arrivalLane="edgeN_I_0" arrivalPos="486.40" arrivalSpeed="12.09" duration="138.00" routeLength="970.33" waitingTime="43.00" waitingCount="1" stopTime="0.00" timeLoss="74.33" rerouteNo="0" devices="tripinfo_rightE_13" vType="length_5" speedFactor="1.12" vaporized=""/>
    <tripinfo id="rightW_11" depart="24.00" departLane="edgeW_O_0" departPos="5.10" departSpeed="0.00" departDelay="0.00" arrival="165.00" arrivalLane="edgeS_I_0" arrivalPos="486.40" arrivalSpeed="11.27" duration="141.00" routeLength="970.33" waitingTime="44.00" waitingCount="1" stopTime="0.00" timeLoss="71.14" rerouteNo="0" devices="tripinfo_rightW_11" vType="length_5" speedFactor="1.03" vaporized=""/>
    <tripinfo id="rightW_12" depart="29.00" departLane="edgeW_O_0" departPos="5.10" departSpeed="0.00" departDelay="4.00" arrival="166.00" arrivalLane="edgeS_I_0" arrivalPos="486.40" arrivalSpeed="11.41" duration="137.00" routeLength="970.33" waitingTime="40.00" waitingCount="1" stopTime="0.00" timeLoss="69.37" rerouteNo="0" devices="tripinfo_rightW_12" vType="length_5" speedFactor="1.05" vaporized=""/>
    <tripinfo id="rightW_28" depart="56.00" departLane="edgeW_O_0" departPos="5.10" departSpeed="0.00" departDelay="0.00" arrival="166.00" arrivalLane="edgeS_I_1" arrivalPos="486.40" arrivalSpeed="12.14" duration="110.00" routeLength="970.33" waitingTime="15.00" waitingCount="1" stopTime="0.00" timeLoss="46.93" rerouteNo="0" devices="tripinfo_rightW_28" vType="length_5" speedFactor="1.13" vaporized=""/>
    <tripinfo id="rightE_30" depart="58.00" departLane="edgeE_O_0" departPos="5.10" departSpeed="0.00" departDelay="0.00" arrival="167.00" arrivalLane="edgeN_I_1" arrivalPos="486.40" arrivalSpeed="12.85" duration="109.00" routeLength="970.33" waitingTime="14.00" waitingCount="1" stopTime="0.00" timeLoss="48.31" rerouteNo="0" devices="tripinfo_rightE_30" vType="length_5" speedFactor="1.18" vaporized=""/>
    <tripinfo id="rightE_7" depart="13.00" departLane="edgeE_O_0" departPos="5.10" departSpeed="0.00" departDelay="0.00" arrival="168.00" arrivalLane="edgeN_I_0" arrivalPos="486.40" arrivalSpeed="9.35" duration="155.00" routeLength="970.33" waitingTime="48.00" waitingCount="1" stopTime="0.00" timeLoss="74.86" rerouteNo="0" devices="tripinfo_rightE_7" vType="length_5" speedFactor="0.89" vaporized=""/>
    <tripinfo id="straightW_27" depart="52.00" departLane="edgeW_O_1" departPos="5.10" departSpeed="0.00" departDelay="0.00" arrival="168.00" arrivalLane="edgeE_I_0" arrivalPos="480.00" arrivalSpeed="10.10" duration="116.00" routeLength="994.90" waitingTime="13.00" waitingCount="1" stopTime="0.00" timeLoss="40.48" rerouteNo="0" devices="tripinfo_straightW_27" vType="length_5" speedFactor="0.95" vaporized=""/>
    <tripinfo id="rightW_32" depart="61.00" departLane="edgeW_O_0" departPos="5.10" departSpeed="0.00" departDelay="0.00" arrival="172.00" arrivalLane="edgeS_I_0" arrivalPos="486.40" arrivalSpeed="10.71" duration="111.00" routeLength="970.33" waitingTime="11.00" waitingCount="1" stopTime="0.00" timeLoss="40.15" rerouteNo="0" devices="tripinfo_rightW_32" vType="length_5" speedFactor="1.01" vaporized=""/>
    <tripinfo id="rightE_9" depart="21.00" departLane="edgeE_O_0" departPos="5.10" departSpeed="0.00" departDelay="0.00" arrival="173.00" arrivalLane="edgeN_I_0" arrivalPos="486.40" arrivalSpeed="9.27" duration="152.00" routeLength="970.33" waitingTime="46.00" waitingCount="1" stopTime="0.00" timeLoss="68.59" rerouteNo="0" devices="tripinfo_rightE_9" vType="length_5" speedFactor="0.86" vaporized=""/>
    <tripinfo id="straightW_5" depart="11.00" departLane="edgeW_O_1" departPos="5.10" departSpeed="0.00" departDelay="0.00" arrival="175.00" arrivalLane="edgeE_I_0" arrivalPos="480.00" arrivalSpeed="8.75" duration="164.00" routeLength="994.90" waitingTime="53.00" waitingCount="1" stopTime="0.00" timeLoss="77.33" rerouteNo="0" devices="tripinfo_straightW_5" vType="length_5" speedFactor="0.83" vaporized=""/>
    <tripinfo id="rightW_34" depart="66.00" departLane="edgeW_O_0" departPos="5.10" departSpeed="0.00" departDelay="1.00" arrival="175.00" arrivalLane="edgeS_I_0" arrivalPos="486.40" arrivalSpeed="10.78" duration="109.00" routeLength="970.33" waitingTime="8.00" waitingCount="1" stopTime="0.00" timeLoss="37.75" rerouteNo="0" devices="tripinfo_rightW_34" vType="length_5" speedFactor="0.99" vaporized=""/>
    <tripinfo id="rightW_35" depart="71.00" departLane="edgeW_O_0" departPos="5.10" departSpeed="0.00" departDelay="2.00" arrival="176.00" arrivalLane="edgeS_I_1" arrivalPos="486.40" arrivalSpeed="10.93" duration="105.00" routeLength="970.33" waitingTime="4.00" waitingCount="1" stopTime="0.00" timeLoss="35.66" rerouteNo="0" devices="tripinfo_rightW_35" vType="length_5" speedFactor="1.02" vaporized=""/>
    <tripinfo id="rightE_36" depart="71.00" departLane="edgeE_O_0" departPos="5.10" departSpeed="0.00" departDelay="0.00" arrival="176.00" arrivalLane="edgeN_I_1" arrivalPos="486.40" arrivalSpeed="10.52" duration="105.00" routeLength="970.33" waitingTime="1.00" waitingCount="1" stopTime="0.00" timeLoss="31.98" rerouteNo="0" devices="tripinfo_rightE_36" vType="length_5" speedFactor="0.97" vaporized=""/>
    <tripinfo id="rightE_24" depart="50.00" departLane="edgeE_O_0" departPos="5.10" departSpeed="0.00" departDelay="0.00" arrival="179.00" arrivalLane="edgeN_I_0" arrivalPos="486.40" arrivalSpeed="8.92" duration="129.00" routeLength="970.33" waitingTime="19.00" waitingCount="1" stopTime="0.00" timeLoss="43.45" rerouteNo="0" devices="tripinfo_rightE_24" vType="length_5" speedFactor="0.83" vaporized=""/>
    <tripinfo id="straightW_46" depart="109.00" departLane="edgeW_O_2" departPos="5.10" departSpeed="0.00" departDelay="0.00" arrival="205.00" arrivalLane="edgeE_I_0" arrivalPos="480.00" arrivalSpeed="10.87" duration="96.00" routeLength="994.90" waitingTime="0.00" waitingCount="0" stopTime="0.00" timeLoss="24.33" rerouteNo="0" devices="tripinfo_straightW_46" vType="length_5" speedFactor="1.00" vaporized=""/>
    <tripinfo id="straightW_49" depart="113.00" departLane="edgeW_O_0" departPos="5.10" departSpeed="0.00" departDelay="0.00" arrival="214.00" arrivalLane="edgeE_I_0" arrivalPos="480.00" arrivalSpeed="9.04" duration="101.00" routeLength="994.90" waitingTime="0.00" waitingCount="0" stopTime="0.00" timeLoss="16.66" rerouteNo="0" devices="tripinfo_straightW_49" vType="length_5" speedFactor="0.85" vaporized=""/>
    <tripinfo id="straightW_33" depart="64.00" departLane="edgeW_O_2" departPos="5.10" departSpeed="0.00" departDelay="0.00" arrival="216.00" arrivalLane="edgeE_I_1" arrivalPos="480.00" arrivalSpeed="12.38" duration="152.00" routeLength="994.90" waitingTime="57.00" waitingCount="1" stopTime="0.00" timeLoss="90.44" rerouteNo="0" devices="tripinfo_straightW_33" vType="length_5" speedFactor="1.17" vaporized=""/>
    <tripinfo id="straightE_38" depart="76.00" departLane="edgeE_O_0" departPos="5.10" departSpeed="0.00" departDelay="2.00" arrival="217.00" arrivalLane="edgeW_I_0" arrivalPos="480.00" arrivalSpeed="11.98" duration="141.00" routeLength="994.90" waitingTime="45.00" waitingCount="1" stopTime="0.00" timeLoss="75.29" rerouteNo="0" devices="tripinfo_straightE_38" vType="length_5" speedFactor="1.10" vaporized=""/>
    <tripinfo id="straightE_42" depart="88.00" departLane="edgeE_O_1" departPos="5.10" departSpeed="0.00" departDelay="0.00" arrival="218.00" arrivalLane="edgeW_I_1" arrivalPos="480.00" arrivalSpeed="11.68" duration="130.00" routeLength="994.90" waitingTime="31.00" waitingCount="1" stopTime="0.00" timeLoss="64.25" rerouteNo="0" devices="tripinfo_straightE_42" vType="length_5" speedFactor="1.09" vaporized=""/>
    <tripinfo id="straightE_57" depart="137.00" departLane="edgeE_O_1" departPos="5.10" departSpeed="0.00" departDelay="0.00" arrival="221.00" arrivalLane="edgeW_I_0" arrivalPos="480.00" arrivalSpeed="12.24" duration="84.00" routeLength="994.90" waitingTime="0.00" waitingCount="0" stopTime="0.00" timeLoss="20.73" rerouteNo="0" devices="tripinfo_straightE_57" vType="length_5" speedFactor="1.14" vaporized=""/>
    <tripinfo id="uturnW_37" depart="72.00" departLane="edgeW_O_2" departPos="5.10" departSpeed="0.00" departDelay="0.00" arrival="224.00" arrivalLane="edgeW_I_1" arrivalPos="480.00" arrivalSpeed="12.85" duration="152.00" routeLength="959.58" waitingTime="55.00" waitingCount="2" stopTime="0.00" timeLoss="92.71" rerouteNo="0" devices="tripinfo_uturnW_37" vType="length_5" speedFactor="1.18" vaporized=""/>
    <tripinfo id="leftE_41" depart="88.00" departLane="edgeE_O_2" departPos="5.10" departSpeed="0.00" departDelay="2.00" arrival="225.00" arrivalLane="edgeS_I_0" arrivalPos="486.40" arrivalSpeed="10.14" duration="137.00" routeLength="993.92" waitingTime="34.00" waitingCount="1" stopTime="0.00" timeLoss="61.60" rerouteNo="0" devices="tripinfo_leftE_41" vType="length_5" speedFactor="0.96" vaporized=""/>
    <tripinfo id="leftE_43" depart="103.00" departLane="edgeE_O_2" departPos="5.10" departSpeed="0.00" departDelay="0.00" arrival="225.00" arrivalLane="edgeS_I_1" arrivalPos="486.40" arrivalSpeed="11.24" duration="122.00" routeLength="993.92" waitingTime="22.00" waitingCount="1" stopTime="0.00" timeLoss="51.69" rerouteNo="0" devices="tripinfo_leftE_43" vType="length_5" speedFactor="1.04" vaporized=""/>
    <tripinfo id="leftE_45" depart="108.00" departLane="edgeE_O_2" departPos="5.10" departSpeed="0.00" departDelay="0.00" arrival="225.00" arrivalLane="edgeS_I_2" arrivalPos="486.40" arrivalSpeed="11.83" duration="117.00" routeLength="993.92" waitingTime="19.00" waitingCount="1" stopTime="0.00" timeLoss="50.32" rerouteNo="0" devices="tripinfo_leftE_45" vType="length_5" speedFactor="1.09" vaporized=""/>
    <tripinfo id="straightE_39" depart="83.00" departLane="edgeE_O_2" departPos="5.10" departSpeed="0.00" departDelay="0.00" arrival="226.00" arrivalLane="edgeW_I_0" arrivalPos="480.00" arrivalSpeed="9.82" duration="143.00" routeLength="994.90" waitingTime="36.00" waitingCount="1" stopTime="0.00" timeLoss="62.97" rerouteNo="0" devices="tripinfo_straightE_39" vType="length_5" speedFactor="0.90" vaporized=""/>
    <tripinfo id="uturnW_44" depart="104.00" departLane="edgeW_O_2" departPos="5.10" departSpeed="0.00" departDelay="0.00" arrival="234.00" arrivalLane="edgeW_I_0" arrivalPos="480.00" arrivalSpeed="11.33" duration="130.00" routeLength="959.58" waitingTime="25.00" waitingCount="2" stopTime="0.00" timeLoss="62.30" rerouteNo="0" devices="tripinfo_uturnW_44" vType="length_5" speedFactor="1.04" vaporized=""/>
    <tripinfo id="straightW_40" depart="84.00" departLane="edgeW_O_0" departPos="5.10" departSpeed="0.00" departDelay="0.00" arrival="235.00" arrivalLane="edgeE_I_0" arrivalPos="480.00" arrivalSpeed="11.12" duration="151.00" routeLength="994.90" waitingTime="44.00" waitingCount="2" stopTime="0.00" timeLoss="80.70" rerouteNo="0" devices="tripinfo_straightW_40" vType="length_5" speedFactor="1.03" vaporized=""/>
    <tripinfo id="leftE_47" depart="113.00" departLane="edgeE_O_2" departPos="5.10" departSpeed="0.00" departDelay="4.00" arrival="235.00" arrivalLane="edgeS_I_0" arrivalPos="486.40" arrivalSpeed="9.84" duration="122.00" routeLength="993.92" waitingTime="11.00" waitingCount="1" stopTime="0.00" timeLoss="41.32" rerouteNo="0" devices="tripinfo_leftE_47" vType="length_5" speedFactor="0.90" vaporized=""/>
    <tripinfo id="straightE_63" depart="154.00" departLane="edgeE_O_0" departPos="5.10" departSpeed="0.00" departDelay="0.00" arrival="244.00" arrivalLane="edgeW_I_0" arrivalPos="480.00" arrivalSpeed="10.77" duration="90.00" routeLength="994.90" waitingTime="0.00" waitingCount="0" stopTime="0.00" timeLoss="16.92" rerouteNo="0" devices="tripinfo_straightE_63" vType="length_5" speedFactor="0.99" vaporized=""/>
    <tripinfo id="uturnE_53" depart="130.00" departLane="edgeE_O_2" departPos="5.10" departSpeed="0.00" departDelay="0.00" arrival="245.00" arrivalLane="edgeE_I_1" arrivalPos="480.00" arrivalSpeed="11.72" duration="115.00" routeLength="959.58" waitingTime="10.00" waitingCount="1" stopTime="0.00" timeLoss="50.70" rerouteNo="0" devices="tripinfo_uturnE_53" vType="length_5" speedFactor="1.10" vaporized=""/>
    <tripinfo id="straightW_59" depart="141.00" departLane="edgeW_O_2" departPos="5.10" departSpeed="0.00" departDelay="0.00" arrival="245.00" arrivalLane="edgeE_I_0" arrivalPos="480.00" arrivalSpeed="10.34" duration="104.00" routeLength="994.90" waitingTime="0.00" waitingCount="0" stopTime="0.00" timeLoss="29.79" rerouteNo="0" devices="tripinfo_straightW_59" vType="length_5" speedFactor="0.97" vaporized=""/>
    <tripinfo id="uturnW_50" depart="116.00" departLane="edgeW_O_2" departPos="5.10" departSpeed="0.00" departDelay="0.00" arrival="247.00" arrivalLane="edgeW_I_0" arrivalPos="480.00" arrivalSpeed="9.07" duration="131.00" routeLength="959.58" waitingTime="11.00" waitingCount="2" stopTime="0.00" timeLoss="48.31" rerouteNo="0" devices="tripinfo_uturnW_50" vType="length_5" speedFactor="0.85" vaporized=""/>
    <tripinfo id="leftW_60" depart="146.00" departLane="edgeW_O_2" departPos="5.10" departSpeed="0.00" departDelay="1.00" arrival="250.00" arrivalLane="edgeN_I_0" arrivalPos="486.40" arrivalSpeed="11.76" duration="104.00" routeLength="993.92" waitingTime="0.00" waitingCount="0" stopTime="0.00" timeLoss="36.51" rerouteNo="0" devices="tripinfo_leftW_60" vType="length_5" speedFactor="1.08" vaporized=""/>
    <tripinfo id="leftE_54" depart="135.00" departLane="edgeE_O_2" departPos="5.10" departSpeed="0.00" departDelay="3.00" arrival="253.00" arrivalLane="edgeS_I_0" arrivalPos="486.40" arrivalSpeed="10.96" duration="118.00" routeLength="993.92" waitingTime="9.00" waitingCount="1" stopTime="0.00" timeLoss="45.49" rerouteNo="0" devices="tripinfo_leftE_54" vType="length_5" speedFactor="1.00" vaporized=""/>
    <tripinfo id="leftE_55" depart="140.00" departLane="edgeE_O_2" departPos="5.10" departSpeed="0.00" departDelay="5.00" arrival="255.00" arrivalLane="edgeS_I_0" arrivalPos="486.40" arrivalSpeed="10.73" duration="115.00" routeLength="993.92" waitingTime="11.00" waitingCount="1" stopTime="0.00" timeLoss="41.99" rerouteNo="0" devices="tripinfo_leftE_55" vType="length_5" speedFactor="1.00" vaporized=""/>
    <tripinfo id="leftE_58" depart="146.00" departLane="edgeE_O_2" departPos="5.10" departSpeed="0.00" departDelay="6.00" arrival="257.00" arrivalLane="edgeS_I_0" arrivalPos="486.40" arrivalSpeed="11.04" duration="111.00" routeLength="993.92" waitingTime="8.00" waitingCount="1" stopTime="0.00" timeLoss="39.80" rerouteNo="0" devices="tripinfo_leftE_58" vType="length_5" speedFactor="1.02" vaporized=""/>
    <tripinfo id="straightE_67" depart="161.00" departLane="edgeE_O_1" departPos="5.10" departSpeed="0.00" departDelay="2.00" arrival="257.00" arrivalLane="edgeW_I_0" arrivalPos="480.00" arrivalSpeed="9.85" duration="96.00" routeLength="994.90" waitingTime="0.00" waitingCount="0" stopTime="0.00" timeLoss="17.67" rerouteNo="0" devices="tripinfo_straightE_67" vType="length_5" speedFactor="0.91" vaporized=""/>
    <tripinfo id="uturnE_65" depart="156.00" departLane="edgeE_O_2" departPos="5.10" departSpeed="0.00" departDelay="0.00" arrival="265.00" arrivalLane="edgeE_I_0" arrivalPos="480.00" arrivalSpeed="9.31" duration="109.00" routeLength="959.58" waitingTime="0.00" waitingCount="0" stopTime="0.00" timeLoss="30.08" rerouteNo="0" devices="tripinfo_uturnE_65" vType="length_5" speedFactor="0.88" vaporized=""/>
    <tripinfo id="uturnW_70" depart="174.00" departLane="edgeW_O_2" departPos="5.10" departSpeed="0.00" departDelay="0.00" arrival="266.00" arrivalLane="edgeW_I_0" arrivalPos="480.00" arrivalSpeed="11.25" duration="92.00" routeLength="959.58" waitingTime="0.00" waitingCount="0" stopTime="0.00" timeLoss="23.16" rerouteNo="0" devices="tripinfo_uturnW_70" vType="length_5" speedFactor="1.02" vaporized=""/>
    <tripinfo id="rightE_51" depart="116.00" departLane="edgeE_O_0" departPos="5.10" departSpeed="0.00" departDelay="0.00" arrival="271.00" arrivalLane="edgeN_I_0" arrivalPos="486.40" arrivalSpeed="12.56" duration="155.00" routeLength="970.33" waitingTime="56.00" waitingCount="2" stopTime="0.00" timeLoss="93.56" rerouteNo="0" devices="tripinfo_rightE_51" vType="length_5" speedFactor="1.17" vaporized=""/>
    <tripinfo id="straightW_61" depart="146.00" departLane="edgeW_O_0" departPos="5.10" departSpeed="0.00" departDelay="0.00" arrival="272.00" arrivalLane="edgeE_I_0" arrivalPos="480.00" arrivalSpeed="12.12" duration="126.00" routeLength="994.90" waitingTime="30.00" waitingCount="1" stopTime="0.00" timeLoss="61.45" rerouteNo="0" devices="tripinfo_straightW_61" vType="length_5" speedFactor="1.12" vaporized=""/>
    <tripinfo id="rightW_62" depart="151.00" departLane="edgeW_O_0" departPos="5.10" departSpeed="0.00" departDelay="0.00" arrival="275.00" arrivalLane="edgeS_I_0" arrivalPos="486.40" arrivalSpeed="11.02" duration="124.00" routeLength="970.33" waitingTime="28.00" waitingCount="1" stopTime="0.00" timeLoss="53.43" rerouteNo="0" devices="tripinfo_rightW_62" vType="length_5" speedFactor="1.02" vaporized=""/>
    <tripinfo id="rightE_52" depart="121.00" departLane="edgeE_O_0" departPos="5.10" departSpeed="0.00" departDelay="0.00" arrival="278.00" arrivalLane="edgeN_I_0" arrivalPos="486.40" arrivalSpeed="11.16" duration="157.00" routeLength="970.33" waitingTime="50.00" waitingCount="2" stopTime="0.00" timeLoss="86.71" rerouteNo="0" devices="tripinfo_rightE_52" vType="length_5" speedFactor="1.02" vaporized=""/>
    <tripinfo id="rightE_48" depart="111.00" departLane="edgeE_O_0" departPos="5.10" departSpeed="0.00" departDelay="0.00" arrival="279.00" arrivalLane="edgeN_I_0" arrivalPos="486.40" arrivalSpeed="9.47" duration="168.00" routeLength="970.33" waitingTime="59.00" waitingCount="2" stopTime="0.00" timeLoss="87.59" rerouteNo="0" devices="tripinfo_rightE_48" vType="length_5" speedFactor="0.88" vaporized=""/>
    <tripinfo id="rightW_69" depart="172.00" departLane="edgeW_O_0" departPos="5.10" departSpeed="0.00" departDelay="0.00" arrival="279.00" arrivalLane="edgeS_I_1" arrivalPos="486.40" arrivalSpeed="11.01" duration="107.00" routeLength="970.33" waitingTime="8.00" waitingCount="1" stopTime="0.00" timeLoss="37.65" rerouteNo="0" devices="tripinfo_rightW_69" vType="length_5" speedFactor="1.02" vaporized=""/>
    <tripinfo id="rightW_64" depart="156.00" departLane="edgeW_O_0" departPos="5.10" departSpeed="0.00" departDelay="0.00" arrival="280.00" arrivalLane="edgeS_I_0" arrivalPos="486.40" arrivalSpeed="10.28" duration="124.00" routeLength="970.33" waitingTime="21.00" waitingCount="1" stopTime="0.00" timeLoss="48.55" rerouteNo="0" devices="tripinfo_rightW_64" vType="length_5" speedFactor="0.94" vaporized=""/>
    <tripinfo id="straightW_56" depart="137.00" departLane="edgeW_O_1" departPos="5.10" departSpeed="0.00" departDelay="0.00" arrival="281.00" arrivalLane="edgeE_I_0" arrivalPos="480.00" arrivalSpeed="9.70" duration="144.00" routeLength="994.90" waitingTime="37.00" waitingCount="1" stopTime="0.00" timeLoss="63.82" rerouteNo="0" devices="tripinfo_straightW_56" vType="length_5" speedFactor="0.90" vaporized=""/>
    <tripinfo id="rightE_68" depart="166.00" departLane="edgeE_O_0" departPos="5.10" departSpeed="0.00" departDelay="0.00" arrival="282.00" arrivalLane="edgeN_I_1" arrivalPos="486.40" arrivalSpeed="11.26" duration="116.00" routeLength="970.33" waitingTime="17.00" waitingCount="1" stopTime="0.00" timeLoss="47.69" rerouteNo="0" devices="tripinfo_rightE_68" vType="length_5" speedFactor="1.04" vaporized=""/>
    <tripinfo id="rightE_73" depart="185.00" departLane="edgeE_O_0" departPos="5.10" departSpeed="0.00" departDelay="0.00" arrival="284.00" arrivalLane="edgeN_I_1" arrivalPos="486.40" arrivalSpeed="11.38" duration="99.00" routeLength="970.33" waitingTime="0.00" waitingCount="0" stopTime="0.00" timeLoss="30.97" rerouteNo="0" devices="tripinfo_rightE_73" vType="length_5" speedFactor="1.06" vaporized=""/>