<?xml version="1.0" encoding="UTF-8"?>

<!-- generated on 2021-10-23 05:40:53 by Eclipse SUMO sumo Version 1.10.0
<configuration xmlns:xsi="http://www.w3.org/2001/XMLSchema-instance" xsi:noNamespaceSchemaLocation="http://sumo.dlr.de/xsd/sumoConfiguration.xsd">

    <input>
        <net-file value="data9/cross.net.xml"/>
        <route-files value="data9/cross.rou.xml"/>
        <additional-files value="data9/cross.tls.xml"/>
    </input>

    <output>
        <tripinfo-output value="data9/tripinfo.xml"/>
        <tripinfo-output.write-unfinished value="true"/>
    </output>

    <time>
        <begin value="0"/>
        <step-length value="1"/>
    </time>

    <processing>
        <threads value="5"/>
        <time-to-teleport value="-1"/>
    </processing>

    <report>
        <verbose value="true"/>
        <no-warnings value="true"/>
        <no-step-log value="true"/>
    </report>

    <traci_server>
        <remote-port value="49295"/>
    </traci_server>

    <gui_only>
        <gui-settings-file value="data9/viewsettings.xml"/>
        <tracker-interval value="1"/>
    </gui_only>

</configuration>
-->

<tripinfos xmlns:xsi="http://www.w3.org/2001/XMLSchema-instance" xsi:noNamespaceSchemaLocation="http://sumo.dlr.de/xsd/tripinfo_file.xsd">
    <tripinfo id="straightS_0" depart="0.00" departLane="edgeS_O_2" departPos="4.36" departSpeed="0.00" departDelay="0.00" arrival="65.00" arrivalLane="edgeN_I_1" arrivalPos="785.70" arrivalSpeed="18.91" duration="65.00" routeLength="1195.64" waitingTime="0.00" waitingCount="0" stopTime="0.00" timeLoss="5.79" rerouteNo="0" devices="tripinfo_straightS_0" vType="vehicleS_0" speedFactor="1.10" vaporized=""/>
    <tripinfo id="leftE_1" depart="0.00" departLane="edgeE_O_3" departPos="4.38" departSpeed="0.00" departDelay="0.00" arrival="67.00" arrivalLane="edgeS_I_3" arrivalPos="385.70" arrivalSpeed="20.14" duration="67.00" routeLength="894.36" waitingTime="12.00" waitingCount="1" stopTime="0.00" timeLoss="25.73" rerouteNo="0" devices="tripinfo_leftE_1" vType="vehicleE_1" speedFactor="1.11" vaporized=""/>
    <tripinfo id="straightS_6" depart="6.00" departLane="edgeS_O_3" departPos="4.26" departSpeed="0.00" departDelay="0.00" arrival="82.00" arrivalLane="edgeN_I_1" arrivalPos="785.70" arrivalSpeed="16.73" duration="76.00" routeLength="1195.74" waitingTime="0.00" waitingCount="0" stopTime="0.00" timeLoss="6.67" rerouteNo="0" devices="tripinfo_straightS_6" vType="vehicleS_6" speedFactor="0.94" vaporized=""/>
    <tripinfo id="leftE_45" depart="30.00" departLane="edgeE_O_3" departPos="5.27" departSpeed="0.00" departDelay="0.00" arrival="82.00" arrivalLane="edgeS_I_4" arrivalPos="385.70" arrivalSpeed="18.24" duration="52.00" routeLength="893.47" waitingTime="0.00" waitingCount="0" stopTime="0.00" timeLoss="6.89" rerouteNo="0" devices="tripinfo_leftE_45" vType="vehicleE_45" speedFactor="1.01" vaporized=""/>
    <tripinfo id="leftE_56" depart="40.00" departLane="edgeE_O_3" departPos="4.76" departSpeed="0.00" departDelay="0.00" arrival="90.00" arrivalLane="edgeS_I_4" arrivalPos="385.70" arrivalSpeed="19.66" duration="50.00" routeLength="893.98" waitingTime="0.00" waitingCount="0" stopTime="0.00" timeLoss="7.44" rerouteNo="0" devices="tripinfo_leftE_56" vType="vehicleE_56" speedFactor="1.08" vaporized=""/>
    <tripinfo id="leftW_39" depart="27.00" departLane="edgeW_O_3" departPos="4.50" departSpeed="0.00" departDelay="0.00" arrival="94.00" arrivalLane="edgeN_I_5" arrivalPos="785.70" arrivalSpeed="22.40" duration="67.00" routeLength="1394.24" waitingTime="0.00" waitingCount="0" stopTime="0.00" timeLoss="9.72" rerouteNo="0" devices="tripinfo_leftW_39" vType="vehicleW_39" speedFactor="1.26" vaporized=""/>
    <tripinfo id="leftW_30" depart="21.00" departLane="edgeW_O_3" departPos="5.08" departSpeed="0.00" departDelay="0.00" arrival="101.00" arrivalLane="edgeN_I_2" arrivalPos="785.70" arrivalSpeed="18.46" duration="80.00" routeLength="1393.66" waitingTime="0.00" waitingCount="0" stopTime="0.00" timeLoss="8.29" rerouteNo="0" devices="tripinfo_leftW_30" vType="vehicleW_30" speedFactor="1.00" vaporized=""/>
    <tripinfo id="straightW_16" depart="13.00" departLane="edgeW_O_1" departPos="4.10" departSpeed="0.00" departDelay="0.00" arrival="103.00" arrivalLane="edgeE_I_1" arrivalPos="479.30" arrivalSpeed="17.60" duration="90.00" routeLength="1095.89" waitingTime="24.00" waitingCount="1" stopTime="0.00" timeLoss="38.67" rerouteNo="0" devices="tripinfo_straightW_16" vType="vehicleW_16" speedFactor="1.17" vaporized=""/>
    <tripinfo id="straightW_3" depart="1.00" departLane="edgeW_O_2" departPos="4.55" departSpeed="0.00" departDelay="0.00" arrival="107.00" arrivalLane="edgeE_I_1" arrivalPos="479.30" arrivalSpeed="15.31" duration="106.00" routeLength="1095.45" waitingTime="30.00" waitingCount="1" stopTime="0.00" timeLoss="47.46" rerouteNo="0" devices="tripinfo_straightW_3" vType="vehicleW_3" speedFactor="1.03" vaporized=""/>
    <tripinfo id="straightE_8" depart="10.00" departLane="edgeE_O_1" departPos="5.46" departSpeed="0.00" departDelay="3.00" arrival="108.00" arrivalLane="edgeW_I_2" arrivalPos="579.30" arrivalSpeed="17.86" duration="98.00" routeLength="1094.54" waitingTime="28.00" waitingCount="1" stopTime="0.00" timeLoss="48.58" rerouteNo="0" devices="tripinfo_straightE_8" vType="vehicleE_8" speedFactor="1.26" vaporized=""/>
    <tripinfo id="straightW_7" depart="7.00" departLane="edgeW_O_2" departPos="4.43" departSpeed="0.00" departDelay="0.00" arrival="110.00" arrivalLane="edgeE_I_2" arrivalPos="479.30" arrivalSpeed="14.89" duration="103.00" routeLength="1095.57" waitingTime="26.00" waitingCount="2" stopTime="0.00" timeLoss="42.80" rerouteNo="0" devices="tripinfo_straightW_7" vType="vehicleW_7" speedFactor="1.01" vaporized=""/>
    <tripinfo id="straightW_22" depart="18.00" departLane="edgeW_O_1" departPos="4.55" departSpeed="0.00" departDelay="0.00" arrival="114.00" arrivalLane="edgeE_I_2" arrivalPos="479.30" arrivalSpeed="14.24" duration="96.00" routeLength="1095.45" waitingTime="15.00" waitingCount="1" stopTime="0.00" timeLoss="33.07" rerouteNo="0" devices="tripinfo_straightW_22" vType="vehicleW_22" speedFactor="0.96" vaporized=""/>
    <tripinfo id="straightW_34" depart="24.00" departLane="edgeW_O_1" departPos="4.49" departSpeed="0.00" departDelay="0.00" arrival="114.00" arrivalLane="edgeE_I_1" arrivalPos="479.30" arrivalSpeed="13.89" duration="90.00" routeLength="1095.51" waitingTime="12.00" waitingCount="1" stopTime="0.00" timeLoss="29.23" rerouteNo="0" devices="tripinfo_straightW_34" vType="vehicleW_34" speedFactor="0.99" vaporized=""/>
    <tripinfo id="straightE_5" depart="7.00" departLane="edgeE_O_1" departPos="5.10" departSpeed="0.00" departDelay="2.00" arrival="116.00" arrivalLane="edgeW_I_1" arrivalPos="579.30" arrivalSpeed="13.96" duration="109.00" routeLength="1094.90" waitingTime="30.00" waitingCount="1" stopTime="0.00" timeLoss="44.40" rerouteNo="0" devices="tripinfo_straightE_5" vType="vehicleE_5" speedFactor="0.96" vaporized=""/>
    <tripinfo id="straightW_42" depart="29.00" departLane="edgeW_O_2" departPos="5.32" departSpeed="0.00" departDelay="0.00" arrival="116.00" arrivalLane="edgeE_I_3" arrivalPos="479.30" arrivalSpeed="16.36" duration="87.00" routeLength="1094.68" waitingTime="12.00" waitingCount="1" stopTime="0.00" timeLoss="29.82" rerouteNo="0" devices="tripinfo_straightW_42" vType="vehicleW_42" speedFactor="1.07" vaporized=""/>
    <tripinfo id="straightW_44" depart="31.00" departLane="edgeW_O_2" departPos="4.37" departSpeed="0.00" departDelay="1.00" arrival="116.00" arrivalLane="edgeE_I_2" arrivalPos="479.30" arrivalSpeed="15.85" duration="85.00" routeLength="1095.63" waitingTime="10.00" waitingCount="1" stopTime="0.00" timeLoss="30.00" rerouteNo="0" devices="tripinfo_straightW_44" vType="vehicleW_44" speedFactor="1.10" vaporized=""/>
    <tripinfo id="leftE_58" depart="43.00" departLane="edgeE_O_3" departPos="4.46" departSpeed="0.00" departDelay="0.00" arrival="116.00" arrivalLane="edgeS_I_4" arrivalPos="385.70" arrivalSpeed="17.53" duration="73.00" routeLength="894.28" waitingTime="13.00" waitingCount="1" stopTime="0.00" timeLoss="24.20" rerouteNo="0" devices="tripinfo_leftE_58" vType="vehicleE_58" speedFactor="0.95" vaporized=""/>
    <tripinfo id="straightE_20" depart="16.00" departLane="edgeE_O_2" departPos="4.89" departSpeed="0.00" departDelay="0.00" arrival="118.00" arrivalLane="edgeW_I_3" arrivalPos="579.30" arrivalSpeed="14.44" duration="102.00" routeLength="1095.11" waitingTime="26.00" waitingCount="1" stopTime="0.00" timeLoss="40.53" rerouteNo="0" devices="tripinfo_straightE_20" vType="vehicleE_20" speedFactor="1.01" vaporized=""/>
    <tripinfo id="straightW_47" depart="31.00" departLane="edgeW_O_1" departPos="5.20" departSpeed="0.00" departDelay="0.00" arrival="118.00" arrivalLane="edgeE_I_2" arrivalPos="479.30" arrivalSpeed="14.98" duration="87.00" routeLength="1094.80" waitingTime="7.00" waitingCount="1" stopTime="0.00" timeLoss="27.63" rerouteNo="0" devices="tripinfo_straightW_47" vType="vehicleW_47" speedFactor="1.02" vaporized=""/>
    <tripinfo id="straightW_51" depart="35.00" departLane="edgeW_O_2" departPos="5.30" departSpeed="0.00" departDelay="0.00" arrival="118.00" arrivalLane="edgeE_I_3" arrivalPos="479.30" arrivalSpeed="15.42" duration="83.00" routeLength="1094.70" waitingTime="4.00" waitingCount="1" stopTime="0.00" timeLoss="26.78" rerouteNo="0" devices="tripinfo_straightW_51" vType="vehicleW_51" speedFactor="1.08" vaporized=""/>
    <tripinfo id="straightE_10" depart="13.00" departLane="edgeE_O_1" departPos="5.25" departSpeed="0.00" departDelay="5.00" arrival="119.00" arrivalLane="edgeW_I_1" arrivalPos="579.30" arrivalSpeed="15.02" duration="106.00" routeLength="1094.75" waitingTime="25.00" waitingCount="1" stopTime="0.00" timeLoss="44.87" rerouteNo="0" devices="tripinfo_straightE_10" vType="vehicleE_10" speedFactor="1.02" vaporized=""/>
    <tripinfo id="straightW_11" depart="9.00" departLane="edgeW_O_1" departPos="5.64" departSpeed="0.00" departDelay="0.00" arrival="119.00" arrivalLane="edgeE_I_1" arrivalPos="479.30" arrivalSpeed="12.09" duration="110.00" routeLength="1094.36" waitingTime="19.00" waitingCount="1" stopTime="0.00" timeLoss="34.02" rerouteNo="0" devices="tripinfo_straightW_11" vType="vehicleW_11" speedFactor="0.80" vaporized=""/>
    <tripinfo id="straightW_65" depart="50.00" departLane="edgeW_O_1" departPos="4.36" departSpeed="0.00" departDelay="0.00" arrival="119.00" arrivalLane="edgeE_I_3" arrivalPos="479.30" arrivalSpeed="17.30" duration="69.00" routeLength="1095.64" waitingTime="0.00" waitingCount="0" stopTime="0.00" timeLoss="16.40" rerouteNo="0" devices="tripinfo_straightW_65" vType="vehicleW_65" speedFactor="1.15" vaporized=""/>
    <tripinfo id="straightE_4" depart="4.00" departLane="edgeE_O_1" departPos="4.47" departSpeed="0.00" departDelay="0.00" arrival="120.00" arrivalLane="edgeW_I_2" arrivalPos="579.30" arrivalSpeed="13.82" duration="116.00" routeLength="1095.53" waitingTime="31.00" waitingCount="1" stopTime="0.00" timeLoss="47.72" rerouteNo="0" devices="tripinfo_straightE_4" vType="vehicleE_4" speedFactor="0.92" vaporized=""/>
    <tripinfo id="straightE_13" depart="16.00" departLane="edgeE_O_1" departPos="5.44" departSpeed="0.00" departDelay="5.00" arrival="121.00" arrivalLane="edgeW_I_1" arrivalPos="579.30" arrivalSpeed="13.82" duration="105.00" routeLength="1094.56" waitingTime="24.00" waitingCount="1" stopTime="0.00" timeLoss="40.49" rerouteNo="0" devices="tripinfo_straightE_13" vType="vehicleE_13" speedFactor="0.97" vaporized=""/>
    <tripinfo id="straightW_28" depart="21.00" departLane="edgeW_O_1" departPos="4.83" departSpeed="0.00" departDelay="1.00" arrival="121.00" arrivalLane="edgeE_I_2" arrivalPos="479.30" arrivalSpeed="14.40" duration="100.00" routeLength="1095.17" waitingTime="11.00" waitingCount="1" stopTime="0.00" timeLoss="39.23" rerouteNo="0" devices="tripinfo_straightW_28" vType="vehicleW_28" speedFactor="1.00" vaporized=""/>
    <tripinfo id="straightE_32" depart="24.00" departLane="edgeE_O_2" departPos="4.92" departSpeed="0.00" departDelay="2.00" arrival="121.00" arrivalLane="edgeW_I_3" arrivalPos="579.30" arrivalSpeed="15.33" duration="97.00" routeLength="1095.07" waitingTime="19.00" waitingCount="1" stopTime="0.00" timeLoss="36.68" rerouteNo="0" devices="tripinfo_straightE_32" vType="vehicleE_32" speedFactor="1.04" vaporized=""/>
    <tripinfo id="straightE_25" depart="19.00" departLane="edgeE_O_2" departPos="4.34" departSpeed="0.00" departDelay="0.00" arrival="122.00" arrivalLane="edgeW_I_2" arrivalPos="579.30" arrivalSpeed="14.23" duration="103.00" routeLength="1095.65" waitingTime="22.00" waitingCount="1" stopTime="0.00" timeLoss="39.41" rerouteNo="0" devices="tripinfo_straightE_25" vType="vehicleE_25" speedFactor="0.98" vaporized=""/>
    <tripinfo id="straightW_64" depart="49.00" departLane="edgeW_O_2" departPos="4.62" departSpeed="0.00" departDelay="0.00" arrival="122.00" arrivalLane="edgeE_I_1" arrivalPos="479.30" arrivalSpeed="13.94" duration="73.00" routeLength="1095.38" waitingTime="0.00" waitingCount="0" stopTime="0.00" timeLoss="10.72" rerouteNo="0" devices="tripinfo_straightW_64" vType="vehicleW_64" speedFactor="0.97" vaporized=""/>
    <tripinfo id="straightW_77" depart="60.00" departLane="edgeW_O_1" departPos="4.44" departSpeed="0.00" departDelay="0.00" arrival="122.00" arrivalLane="edgeE_I_3" arrivalPos="479.30" arrivalSpeed="17.34" duration="62.00" routeLength="1095.56" waitingTime="0.00" waitingCount="0" stopTime="0.00" timeLoss="10.21" rerouteNo="0" devices="tripinfo_straightW_77" vType="vehicleW_77" speedFactor="1.17" vaporized=""/>
    <tripinfo id="straightE_36" depart="27.00" departLane="edgeE_O_2" departPos="5.49" departSpeed="0.00" departDelay="2.00" arrival="124.00" arrivalLane="edgeW_I_2" arrivalPos="579.30" arrivalSpeed="15.56" duration="97.00" routeLength="1094.51" waitingTime="16.00" waitingCount="1" stopTime="0.00" timeLoss="39.18" rerouteNo="0" devices="tripinfo_straightE_36" vType="vehicleE_36" speedFactor="1.09" vaporized=""/>
    <tripinfo id="straightW_57" depart="43.00" departLane="edgeW_O_1" departPos="5.05" departSpeed="0.00" departDelay="0.00" arrival="124.00" arrivalLane="edgeE_I_2" arrivalPos="479.30" arrivalSpeed="13.66" duration="81.00" routeLength="1094.95" waitingTime="0.00" waitingCount="0" stopTime="0.00" timeLoss="13.04" rerouteNo="0" devices="tripinfo_straightW_57" vType="vehicleW_57" speedFactor="0.89" vaporized=""/>
    <tripinfo id="straightE_15" depart="19.00" departLane="edgeE_O_1" departPos="5.63" departSpeed="0.00" departDelay="7.00" arrival="125.00" arrivalLane="edgeW_I_1" arrivalPos="579.30" arrivalSpeed="14.36" duration="106.00" routeLength="1094.37" waitingTime="23.00" waitingCount="1" stopTime="0.00" timeLoss="39.86" rerouteNo="0" devices="tripinfo_straightE_15" vType="vehicleE_15" speedFactor="0.94" vaporized=""/>
    <tripinfo id="straightN_23" depart="19.00" departLane="edgeN_O_2" departPos="4.76" departSpeed="0.00" departDelay="0.00" arrival="125.00" arrivalLane="edgeS_I_4" arrivalPos="385.70" arrivalSpeed="19.33" duration="106.00" routeLength="1195.24" waitingTime="28.00" waitingCount="1" stopTime="0.00" timeLoss="45.48" rerouteNo="0" devices="tripinfo_straightN_23" vType="vehicleN_23" speedFactor="1.08" vaporized=""/>
    <tripinfo id="straightN_26" depart="20.00" departLane="edgeN_O_5" departPos="5.53" departSpeed="0.00" departDelay="0.00" arrival="125.00" arrivalLane="edgeS_I_3" arrivalPos="385.70" arrivalSpeed="18.93" duration="105.00" routeLength="1194.47" waitingTime="31.00" waitingCount="1" stopTime="0.00" timeLoss="44.17" rerouteNo="0" devices="tripinfo_straightN_26" vType="vehicleN_26" speedFactor="1.07" vaporized=""/>
    <tripinfo id="straightE_50" depart="34.00" departLane="edgeE_O_2" departPos="4.62" departSpeed="0.00" departDelay="0.00" arrival="126.00" arrivalLane="edgeW_I_2" arrivalPos="579.30" arrivalSpeed="14.69" duration="92.00" routeLength="1095.38" waitingTime="11.00" waitingCount="1" stopTime="0.00" timeLoss="31.24" rerouteNo="0" devices="tripinfo_straightE_50" vType="vehicleE_50" speedFactor="1.03" vaporized=""/>
    <tripinfo id="straightE_69" depart="52.00" departLane="edgeE_O_2" departPos="5.37" departSpeed="0.00" departDelay="0.00" arrival="126.00" arrivalLane="edgeW_I_3" arrivalPos="579.30" arrivalSpeed="16.47" duration="74.00" routeLength="1094.63" waitingTime="0.00" waitingCount="0" stopTime="0.00" timeLoss="18.15" rerouteNo="0" devices="tripinfo_straightE_69" vType="vehicleE_69" speedFactor="1.12" vaporized=""/>
    <tripinfo id="straightN_9" depart="8.00" departLane="edgeN_O_5" departPos="4.43" departSpeed="0.00" departDelay="0.00" arrival="128.00" arrivalLane="edgeS_I_3" arrivalPos="385.70" arrivalSpeed="17.36" duration="120.00" routeLength="1195.57" waitingTime="41.00" waitingCount="1" stopTime="0.00" timeLoss="53.36" rerouteNo="0" devices="tripinfo_straightN_9" vType="vehicleN_9" speedFactor="0.98" vaporized=""/>
    <tripinfo id="straightE_31" depart="21.00" departLane="edgeE_O_2" departPos="4.39" departSpeed="0.00" departDelay="0.00" arrival="128.00" arrivalLane="edgeW_I_1" arrivalPos="579.30" arrivalSpeed="13.22" duration="107.00" routeLength="1095.61" waitingTime="22.00" waitingCount="1" stopTime="0.00" timeLoss="38.12" rerouteNo="0" devices="tripinfo_straightE_31" vType="vehicleE_31" speedFactor="0.91" vaporized=""/>
    <tripinfo id="straightN_2" depart="1.00" departLane="edgeN_O_5" departPos="5.33" departSpeed="0.00" departDelay="0.00" arrival="129.00" arrivalLane="edgeS_I_2" arrivalPos="385.70" arrivalSpeed="17.60" duration="128.00" routeLength="1194.66" waitingTime="48.00" waitingCount="1" stopTime="0.00" timeLoss="62.67" rerouteNo="0" devices="tripinfo_straightN_2" vType="vehicleN_2" speedFactor="1.00" vaporized=""/>
    <tripinfo id="straightN_33" depart="26.00" departLane="edgeN_O_5" departPos="4.10" departSpeed="0.00" departDelay="3.00" arrival="129.00" arrivalLane="edgeS_I_4" arrivalPos="385.70" arrivalSpeed="18.24" duration="103.00" routeLength="1195.90" waitingTime="23.00" waitingCount="1" stopTime="0.00" timeLoss="40.37" rerouteNo="0" devices="tripinfo_straightN_33" vType="vehicleN_33" speedFactor="1.05" vaporized=""/>
    <tripinfo id="straightN_21" depart="17.00" departLane="edgeN_O_4" departPos="4.67" departSpeed="0.00" departDelay="0.00" arrival="130.00" arrivalLane="edgeS_I_2" arrivalPos="385.70" arrivalSpeed="18.96" duration="113.00" routeLength="1195.33" waitingTime="33.00" waitingCount="1" stopTime="0.00" timeLoss="50.23" rerouteNo="0" devices="tripinfo_straightN_21" vType="vehicleN_21" speedFactor="1.05" vaporized=""/>
    <tripinfo id="straightE_35" depart="24.00" departLane="edgeE_O_1" departPos="5.22" departSpeed="0.00" departDelay="0.00" arrival="131.00" arrivalLane="edgeW_I_1" arrivalPos="579.30" arrivalSpeed="13.16" duration="107.00" routeLength="1094.78" waitingTime="18.00" waitingCount="1" stopTime="0.00" timeLoss="36.53" rerouteNo="0" devices="tripinfo_straightE_35" vType="vehicleE_35" speedFactor="0.89" vaporized=""/>
    <tripinfo id="straightN_40" depart="32.00" departLane="edgeN_O_5" departPos="4.16" departSpeed="0.00" departDelay="4.00" arrival="132.00" arrivalLane="edgeS_I_4" arrivalPos="385.70" arrivalSpeed="17.58" duration="100.00" routeLength="1195.84" waitingTime="14.00" waitingCount="1" stopTime="0.00" timeLoss="33.00" rerouteNo="0" devices="tripinfo_straightN_40" vType="vehicleN_40" speedFactor="0.98" vaporized=""/>
    <tripinfo id="straightE_48" depart="32.00" departLane="edgeE_O_1" departPos="4.88" departSpeed="0.00" departDelay="0.00" arrival="132.00" arrivalLane="edgeW_I_2" arrivalPos="579.30" arrivalSpeed="13.04" duration="100.00" routeLength="1095.12" waitingTime="14.00" waitingCount="2" stopTime="0.00" timeLoss="32.45" rerouteNo="0" devices="tripinfo_straightE_48" vType="vehicleE_48" speedFactor="0.92" vaporized=""/>
    <tripinfo id="straightE_43" depart="29.00" departLane="edgeE_O_1" departPos="4.63" departSpeed="0.00" departDelay="0.00" arrival="133.00" arrivalLane="edgeW_I_1" arrivalPos="579.30" arrivalSpeed="13.36" duration="104.00" routeLength="1095.37" waitingTime="15.00" waitingCount="1" stopTime="0.00" timeLoss="33.19" rerouteNo="0" devices="tripinfo_straightE_43" vType="vehicleE_43" speedFactor="0.89" vaporized=""/>
    <tripinfo id="straightN_14" depart="12.00" departLane="edgeN_O_2" departPos="4.89" departSpeed="0.00" departDelay="0.00" arrival="134.00" arrivalLane="edgeS_I_2" arrivalPos="385.70" arrivalSpeed="14.20" duration="122.00" routeLength="1195.11" waitingTime="31.00" waitingCount="1" stopTime="0.00" timeLoss="45.27" rerouteNo="0" devices="tripinfo_straightN_14" vType="vehicleN_14" speedFactor="0.85" vaporized=""/>
    <tripinfo id="straightN_52" depart="36.00" departLane="edgeN_O_2" departPos="5.49" departSpeed="0.00" departDelay="0.00" arrival="135.00" arrivalLane="edgeS_I_4" arrivalPos="385.70" arrivalSpeed="17.30" duration="99.00" routeLength="1194.51" waitingTime="14.00" waitingCount="1" stopTime="0.00" timeLoss="29.49" rerouteNo="0" devices="tripinfo_straightN_52" vType="vehicleN_52" speedFactor="0.94" vaporized=""/>
    <tripinfo id="straightE_74" depart="56.00" departLane="edgeE_O_2" departPos="4.53" departSpeed="0.00" departDelay="0.00" arrival="135.00" arrivalLane="edgeW_I_1" arrivalPos="579.30" arrivalSpeed="13.95" duration="79.00" routeLength="1095.47" waitingTime="0.00" waitingCount="0" stopTime="0.00" timeLoss="12.58" rerouteNo="0" devices="tripinfo_straightE_74" vType="vehicleE_74" speedFactor="0.94" vaporized=""/>
    <tripinfo id="straightN_79" depart="61.00" departLane="edgeN_O_3" departPos="5.25" departSpeed="0.00" departDelay="0.00" arrival="135.00" arrivalLane="edgeS_I_5" arrivalPos="385.70" arrivalSpeed="17.37" duration="74.00" routeLength="1194.75" waitingTime="0.00" waitingCount="0" stopTime="0.00" timeLoss="7.86" rerouteNo="0" devices="tripinfo_straightN_79" vType="vehicleN_79" speedFactor="0.98" vaporized=""/>
    <tripinfo id="straightN_41" depart="29.00" departLane="edgeN_O_3" departPos="5.32" departSpeed="0.00" departDelay="0.00" arrival="136.00" arrivalLane="edgeS_I_3" arrivalPos="385.70" arrivalSpeed="14.91" duration="107.00" routeLength="1194.68" waitingTime="12.00" waitingCount="2" stopTime="0.00" timeLoss="27.58" rerouteNo="0" devices="tripinfo_straightN_41" vType="vehicleN_41" speedFactor="0.82" vaporized=""/>
    <tripinfo id="straightN_59" depart="44.00" departLane="edgeN_O_5" departPos="5.14" departSpeed="0.00" departDelay="0.00" arrival="136.00" arrivalLane="edgeS_I_1" arrivalPos="385.70" arrivalSpeed="16.32" duration="92.00" routeLength="1194.86" waitingTime="3.00" waitingCount="1" stopTime="0.00" timeLoss="19.33" rerouteNo="0" devices="tripinfo_straightN_59" vType="vehicleN_59" speedFactor="0.90" vaporized=""/>
    <tripinfo id="uturnW_70" depart="53.00" departLane="edgeW_O_3" departPos="5.29" departSpeed="0.00" departDelay="0.00" arrival="136.00" arrivalLane="edgeW_I_3" arrivalPos="579.30" arrivalSpeed="13.21" duration="83.00" routeLength="1157.98" waitingTime="0.00" waitingCount="0" stopTime="0.00" timeLoss="11.62" rerouteNo="0" devices="tripinfo_uturnW_70" vType="vehicleW_70" speedFactor="0.92" vaporized=""/>
    <tripinfo id="straightN_55" depart="39.00" departLane="edgeN_O_2" departPos="4.81" departSpeed="0.00" departDelay="1.00" arrival="137.00" arrivalLane="edgeS_I_3" arrivalPos="385.70" arrivalSpeed="16.71" duration="98.00" routeLength="1195.19" waitingTime="11.00" waitingCount="2" stopTime="0.00" timeLoss="35.31" rerouteNo="0" devices="tripinfo_straightN_55" vType="vehicleN_55" speedFactor="1.04" vaporized=""/>
    <tripinfo id="leftW_61" depart="45.00" departLane="edgeW_O_3" departPos="4.57" departSpeed="0.00" departDelay="0.00" arrival="138.00" arrivalLane="edgeN_I_2" arrivalPos="785.70" arrivalSpeed="18.63" duration="93.00" routeLength="1394.17" waitingTime="12.00" waitingCount="1" stopTime="0.00" timeLoss="25.51" rerouteNo="0" devices="tripinfo_leftW_61" vType="vehicleW_61" speedFactor="1.08" vaporized=""/>
    <tripinfo id="straightN_62" depart="47.00" departLane="edgeN_O_3" departPos="4.64" departSpeed="0.00" departDelay="0.00" arrival="138.00" arrivalLane="edgeS_I_2" arrivalPos="385.70" arrivalSpeed="15.47" duration="91.00" routeLength="1195.36" waitingTime="0.00" waitingCount="0" stopTime="0.00" timeLoss="17.01" rerouteNo="0" devices="tripinfo_straightN_62" vType="vehicleN_62" speedFactor="0.88" vaporized=""/>
    <tripinfo id="rightS_81" depart="62.00" departLane="edgeS_O_1" departPos="4.81" departSpeed="0.00" departDelay="0.00" arrival="138.00" arrivalLane="edgeE_I_1" arrivalPos="479.30" arrivalSpeed="13.94" duration="76.00" routeLength="870.35" waitingTime="10.00" waitingCount="1" stopTime="0.00" timeLoss="21.61" rerouteNo="0" devices="tripinfo_rightS_81" vType="vehicleS_81" speedFactor="0.98" vaporized=""/>
    <tripinfo id="uturnS_24" depart="19.00" departLane="edgeS_O_5" departPos="5.38" departSpeed="0.00" departDelay="0.00" arrival="139.00" arrivalLane="edgeS_I_5" arrivalPos="385.70" arrivalSpeed="18.83" duration="120.00" routeLength="770.70" waitingTime="67.00" waitingCount="2" stopTime="0.00" timeLoss="77.87" rerouteNo="0" devices="tripinfo_uturnS_24" vType="vehicleS_24" speedFactor="1.03" vaporized=""/>
    <tripinfo id="straightE_60" depart="44.00" departLane="edgeE_O_1" departPos="4.64" departSpeed="0.00" departDelay="0.00" arrival="139.00" arrivalLane="edgeW_I_1" arrivalPos="579.30" arrivalSpeed="11.76" duration="95.00" routeLength="1095.36" waitingTime="0.00" waitingCount="0" stopTime="0.00" timeLoss="18.31" rerouteNo="0" devices="tripinfo_straightE_60" vType="vehicleE_60" speedFactor="0.81" vaporized=""/>
    <tripinfo id="straightN_72" depart="56.00" departLane="edgeN_O_4" departPos="4.88" departSpeed="0.00" departDelay="0.00" arrival="139.00" arrivalLane="edgeS_I_4" arrivalPos="385.70" arrivalSpeed="16.20" duration="83.00" routeLength="1195.12" waitingTime="0.00" waitingCount="0" stopTime="0.00" timeLoss="13.98" rerouteNo="0" devices="tripinfo_straightN_72" vType="vehicleN_72" speedFactor="0.95" vaporized=""/>
    <tripinfo id="straightE_67" depart="51.00" departLane="edgeE_O_1" departPos="5.00" departSpeed="0.00" departDelay="0.00" arrival="140.00" arrivalLane="edgeW_I_2" arrivalPos="579.30" arrivalSpeed="13.03" duration="89.00" routeLength="1095.00" waitingTime="0.00" waitingCount="0" stopTime="0.00" timeLoss="16.03" rerouteNo="0" devices="tripinfo_straightE_67" vType="vehicleE_67" speedFactor="0.86" vaporized=""/>
    <tripinfo id="straightN_63" depart="49.00" departLane="edgeN_O_4" departPos="5.43" departSpeed="0.00" departDelay="0.00" arrival="141.00" arrivalLane="edgeS_I_3" arrivalPos="385.70" arrivalSpeed="13.73" duration="92.00" routeLength="1194.57" waitingTime="0.00" waitingCount="0" stopTime="0.00" timeLoss="10.88" rerouteNo="0" devices="tripinfo_straightN_63" vType="vehicleN_63" speedFactor="0.81" vaporized=""/>
    <tripinfo id="straightN_86" depart="65.00" departLane="edgeN_O_2" departPos="5.09" departSpeed="0.00" departDelay="0.00" arrival="142.00" arrivalLane="edgeS_I_4" arrivalPos="385.70" arrivalSpeed="21.69" duration="77.00" routeLength="1194.91" waitingTime="0.00" waitingCount="0" stopTime="0.00" timeLoss="21.97" rerouteNo="0" devices="tripinfo_straightN_86" vType="vehicleN_86" speedFactor="1.19" vaporized=""/>
    <tripinfo id="straightN_88" depart="69.00" departLane="edgeN_O_4" departPos="4.50" departSpeed="0.00" departDelay="0.00" arrival="143.00" arrivalLane="edgeS_I_3" arrivalPos="385.70" arrivalSpeed="16.80" duration="74.00" routeLength="1195.50" waitingTime="0.00" waitingCount="0" stopTime="0.00" timeLoss="6.34" rerouteNo="0" devices="tripinfo_straightN_88" vType="vehicleN_88" speedFactor="0.97" vaporized=""/>
    <tripinfo id="uturnS_46" depart="31.00" departLane="edgeS_O_5" departPos="4.29" departSpeed="0.00" departDelay="0.00" arrival="145.00" arrivalLane="edgeS_I_5" arrivalPos="385.70" arrivalSpeed="20.11" duration="114.00" routeLength="771.79" waitingTime="50.00" waitingCount="4" stopTime="0.00" timeLoss="75.49" rerouteNo="0" devices="tripinfo_uturnS_46" vType="vehicleS_46" speedFactor="1.12" vaporized=""/>
    <tripinfo id="straightN_103" depart="79.00" departLane="edgeN_O_5" departPos="4.06" departSpeed="0.00" departDelay="0.00" arrival="148.00" arrivalLane="edgeS_I_4" arrivalPos="385.70" arrivalSpeed="20.26" duration="69.00" routeLength="1195.94" waitingTime="0.00" waitingCount="0" stopTime="0.00" timeLoss="12.02" rerouteNo="0" devices="tripinfo_straightN_103" vType="vehicleN_103" speedFactor="1.16" vaporized=""/>
    <tripinfo id="straightN_106" depart="81.00" departLane="edgeN_O_2" departPos="4.43" departSpeed="0.00" departDelay="0.00" arrival="148.00" arrivalLane="edgeS_I_2" arrivalPos="385.70" arrivalSpeed="18.76" duration="67.00" routeLength="1195.57" waitingTime="0.00" waitingCount="0" stopTime="0.00" timeLoss="6.48" rerouteNo="0" devices="tripinfo_straightN_106" vType="vehicleN_106" speedFactor="1.08" vaporized=""/>
    <tripinfo id="rightN_12" depart="10.00" departLane="edgeN_O_1" departPos="5.24" departSpeed="0.00" departDelay="0.00" arrival="149.00" arrivalLane="edgeW_I_1" arrivalPos="579.30" arrivalSpeed="12.52" duration="139.00" routeLength="1369.92" waitingTime="34.00" waitingCount="1" stopTime="0.00" timeLoss="47.79" rerouteNo="0" devices="tripinfo_rightN_12" vType="vehicleN_12" speedFactor="0.90" vaporized=""/>
    <tripinfo id="straightS_19" depart="16.00" departLane="edgeS_O_2" departPos="4.37" departSpeed="0.00" departDelay="0.00" arrival="150.00" arrivalLane="edgeN_I_1" arrivalPos="785.70" arrivalSpeed="17.26" duration="134.00" routeLength="1195.63" waitingTime="56.00" waitingCount="1" stopTime="0.00" timeLoss="68.65" rerouteNo="0" devices="tripinfo_straightS_19" vType="vehicleS_19" speedFactor="1.00" vaporized=""/>