<?xml version="1.0" encoding="UTF-8"?>

<!-- generated on 2021-10-23 04:06:19 by Eclipse SUMO sumo Version 1.10.0
<configuration xmlns:xsi="http://www.w3.org/2001/XMLSchema-instance" xsi:noNamespaceSchemaLocation="http://sumo.dlr.de/xsd/sumoConfiguration.xsd">

    <input>
        <net-file value="data9/cross.net.xml"/>
        <route-files value="data9/cross.rou.xml"/>
        <additional-files value="data9/cross.tls.xml"/>
    </input>

    <output>
        <tripinfo-output value="data9/tripinfo.xml"/>
        <tripinfo-output.write-unfinished value="true"/>
    </output>

    <time>
        <begin value="0"/>
        <step-length value="1"/>
    </time>

    <processing>
        <threads value="5"/>
        <time-to-teleport value="-1"/>
    </processing>

    <report>
        <verbose value="true"/>
        <no-warnings value="true"/>
        <no-step-log value="true"/>
    </report>

    <traci_server>
        <remote-port value="54646"/>
    </traci_server>

    <gui_only>
        <gui-settings-file value="data9/viewsettings.xml"/>
        <tracker-interval value="1"/>
    </gui_only>

</configuration>
-->

<tripinfos xmlns:xsi="http://www.w3.org/2001/XMLSchema-instance" xsi:noNamespaceSchemaLocation="http://sumo.dlr.de/xsd/tripinfo_file.xsd">
    <tripinfo id="straightW_1" depart="0.00" departLane="edgeW_O_2" departPos="4.12" departSpeed="0.00" departDelay="0.00" arrival="56.00" arrivalLane="edgeE_I_2" arrivalPos="282.50" arrivalSpeed="19.77" duration="56.00" routeLength="1195.88" waitingTime="0.00" waitingCount="0" stopTime="0.00" timeLoss="8.44" rerouteNo="0" devices="tripinfo_straightW_1" vType="vehicleW_1" speedFactor="1.20" vaporized=""/>
    <tripinfo id="straightW_7" depart="7.00" departLane="edgeW_O_4" departPos="5.32" departSpeed="0.00" departDelay="0.00" arrival="64.00" arrivalLane="edgeE_I_4" arrivalPos="282.50" arrivalSpeed="18.67" duration="57.00" routeLength="1194.67" waitingTime="0.00" waitingCount="0" stopTime="0.00" timeLoss="7.56" rerouteNo="0" devices="tripinfo_straightW_7" vType="vehicleW_7" speedFactor="1.15" vaporized=""/>
    <tripinfo id="rightE_14" depart="11.00" departLane="edgeE_O_1" departPos="5.49" departSpeed="0.00" departDelay="0.00" arrival="66.00" arrivalLane="edgeN_I_1" arrivalPos="579.30" arrivalSpeed="19.98" duration="55.00" routeLength="866.47" waitingTime="0.00" waitingCount="0" stopTime="0.00" timeLoss="12.24" rerouteNo="0" devices="tripinfo_rightE_14" vType="vehicleE_14" speedFactor="0.99" vaporized=""/>
    <tripinfo id="straightW_5" depart="6.00" departLane="edgeW_O_2" departPos="5.17" departSpeed="0.00" departDelay="0.00" arrival="69.00" arrivalLane="edgeE_I_2" arrivalPos="282.50" arrivalSpeed="15.85" duration="63.00" routeLength="1194.83" waitingTime="0.00" waitingCount="0" stopTime="0.00" timeLoss="6.50" rerouteNo="0" devices="tripinfo_straightW_5" vType="vehicleW_5" speedFactor="1.00" vaporized=""/>
    <tripinfo id="straightW_12" depart="10.00" departLane="edgeW_O_4" departPos="5.61" departSpeed="0.00" departDelay="0.00" arrival="74.00" arrivalLane="edgeE_I_4" arrivalPos="282.50" arrivalSpeed="15.84" duration="64.00" routeLength="1194.39" waitingTime="0.00" waitingCount="0" stopTime="0.00" timeLoss="7.68" rerouteNo="0" devices="tripinfo_straightW_12" vType="vehicleW_12" speedFactor="1.02" vaporized=""/>
    <tripinfo id="straightW_24" depart="17.00" departLane="edgeW_O_3" departPos="4.63" departSpeed="0.00" departDelay="0.00" arrival="74.00" arrivalLane="edgeE_I_5" arrivalPos="282.50" arrivalSpeed="18.79" duration="57.00" routeLength="1195.37" waitingTime="0.00" waitingCount="0" stopTime="0.00" timeLoss="6.24" rerouteNo="0" devices="tripinfo_straightW_24" vType="vehicleW_24" speedFactor="1.13" vaporized=""/>
    <tripinfo id="straightW_17" depart="13.00" departLane="edgeW_O_3" departPos="4.19" departSpeed="0.00" departDelay="0.00" arrival="76.00" arrivalLane="edgeE_I_2" arrivalPos="282.50" arrivalSpeed="15.91" duration="63.00" routeLength="1195.81" waitingTime="0.00" waitingCount="0" stopTime="0.00" timeLoss="6.34" rerouteNo="0" devices="tripinfo_straightW_17" vType="vehicleW_17" speedFactor="1.00" vaporized=""/>
    <tripinfo id="rightE_46" depart="32.00" departLane="edgeE_O_1" departPos="4.50" departSpeed="0.00" departDelay="0.00" arrival="79.00" arrivalLane="edgeN_I_1" arrivalPos="579.30" arrivalSpeed="22.53" duration="47.00" routeLength="867.46" waitingTime="0.00" waitingCount="0" stopTime="0.00" timeLoss="9.36" rerouteNo="0" devices="tripinfo_rightE_46" vType="vehicleE_46" speedFactor="1.13" vaporized=""/>
    <tripinfo id="straightW_27" depart="18.00" departLane="edgeW_O_5" departPos="4.42" departSpeed="0.00" departDelay="0.00" arrival="81.00" arrivalLane="edgeE_I_4" arrivalPos="282.50" arrivalSpeed="18.09" duration="63.00" routeLength="1195.58" waitingTime="0.00" waitingCount="0" stopTime="0.00" timeLoss="11.41" rerouteNo="0" devices="tripinfo_straightW_27" vType="vehicleW_27" speedFactor="1.10" vaporized=""/>
    <tripinfo id="leftE_21" depart="15.00" departLane="edgeE_O_5" departPos="4.13" departSpeed="0.00" departDelay="0.00" arrival="83.00" arrivalLane="edgeS_I_1" arrivalPos="879.30" arrivalSpeed="19.62" duration="68.00" routeLength="1193.64" waitingTime="0.00" waitingCount="0" stopTime="0.00" timeLoss="10.50" rerouteNo="0" devices="tripinfo_leftE_21" vType="vehicleE_21" speedFactor="1.01" vaporized=""/>
    <tripinfo id="straightE_11" depart="9.00" departLane="edgeE_O_5" departPos="5.36" departSpeed="0.00" departDelay="0.00" arrival="87.00" arrivalLane="edgeW_I_1" arrivalPos="882.50" arrivalSpeed="17.59" duration="78.00" routeLength="1194.64" waitingTime="1.00" waitingCount="1" stopTime="0.00" timeLoss="16.77" rerouteNo="0" devices="tripinfo_straightE_11" vType="vehicleE_11" speedFactor="1.09" vaporized=""/>
    <tripinfo id="straightE_16" depart="12.00" departLane="edgeE_O_3" departPos="5.68" departSpeed="0.00" departDelay="0.00" arrival="89.00" arrivalLane="edgeW_I_1" arrivalPos="882.50" arrivalSpeed="15.91" duration="77.00" routeLength="1194.32" waitingTime="0.00" waitingCount="0" stopTime="0.00" timeLoss="11.67" rerouteNo="0" devices="tripinfo_straightE_16" vType="vehicleE_16" speedFactor="1.02" vaporized=""/>
    <tripinfo id="straightW_30" depart="19.00" departLane="edgeW_O_2" departPos="5.57" departSpeed="0.00" departDelay="0.00" arrival="89.00" arrivalLane="edgeE_I_2" arrivalPos="282.50" arrivalSpeed="14.30" duration="70.00" routeLength="1194.43" waitingTime="0.00" waitingCount="0" stopTime="0.00" timeLoss="6.50" rerouteNo="0" devices="tripinfo_straightW_30" vType="vehicleW_30" speedFactor="0.89" vaporized=""/>
    <tripinfo id="leftE_23" depart="18.00" departLane="edgeE_O_5" departPos="4.78" departSpeed="0.00" departDelay="2.00" arrival="91.00" arrivalLane="edgeS_I_1" arrivalPos="879.30" arrivalSpeed="20.35" duration="73.00" routeLength="1192.99" waitingTime="1.00" waitingCount="1" stopTime="0.00" timeLoss="15.24" rerouteNo="0" devices="tripinfo_leftE_23" vType="vehicleE_23" speedFactor="1.02" vaporized=""/>
    <tripinfo id="straightE_28" depart="21.00" departLane="edgeE_O_5" departPos="5.58" departSpeed="0.00" departDelay="3.00" arrival="92.00" arrivalLane="edgeW_I_2" arrivalPos="882.50" arrivalSpeed="17.67" duration="71.00" routeLength="1194.42" waitingTime="0.00" waitingCount="0" stopTime="0.00" timeLoss="11.08" rerouteNo="0" devices="tripinfo_straightE_28" vType="vehicleE_28" speedFactor="1.11" vaporized=""/>
    <tripinfo id="straightE_34" depart="21.00" departLane="edgeE_O_4" departPos="4.99" departSpeed="0.00" departDelay="0.00" arrival="93.00" arrivalLane="edgeW_I_1" arrivalPos="882.50" arrivalSpeed="17.36" duration="72.00" routeLength="1195.01" waitingTime="0.00" waitingCount="0" stopTime="0.00" timeLoss="8.02" rerouteNo="0" devices="tripinfo_straightE_34" vType="vehicleE_34" speedFactor="1.04" vaporized=""/>
    <tripinfo id="uturnE_70" depart="52.00" departLane="edgeE_O_5" departPos="5.35" departSpeed="0.00" departDelay="0.00" arrival="93.00" arrivalLane="edgeE_I_5" arrivalPos="282.50" arrivalSpeed="18.44" duration="41.00" routeLength="564.33" waitingTime="0.00" waitingCount="0" stopTime="0.00" timeLoss="13.65" rerouteNo="0" devices="tripinfo_uturnE_70" vType="vehicleE_70" speedFactor="1.11" vaporized=""/>
    <tripinfo id="straightW_37" depart="24.00" departLane="edgeW_O_4" departPos="4.42" departSpeed="0.00" departDelay="0.00" arrival="94.00" arrivalLane="edgeE_I_2" arrivalPos="282.50" arrivalSpeed="14.46" duration="70.00" routeLength="1195.58" waitingTime="0.00" waitingCount="0" stopTime="0.00" timeLoss="6.92" rerouteNo="0" devices="tripinfo_straightW_37" vType="vehicleW_37" speedFactor="0.90" vaporized=""/>
    <tripinfo id="leftW_4" depart="5.00" departLane="edgeW_O_5" departPos="4.55" departSpeed="0.00" departDelay="0.00" arrival="102.00" arrivalLane="edgeN_I_1" arrivalPos="579.30" arrivalSpeed="15.90" duration="97.00" routeLength="1493.22" waitingTime="0.00" waitingCount="0" stopTime="0.00" timeLoss="10.85" rerouteNo="0" devices="tripinfo_leftW_4" vType="vehicleW_4" speedFactor="0.81" vaporized=""/>
    <tripinfo id="leftW_33" depart="21.00" departLane="edgeW_O_5" departPos="5.12" departSpeed="0.00" departDelay="0.00" arrival="102.00" arrivalLane="edgeN_I_3" arrivalPos="579.30" arrivalSpeed="22.09" duration="81.00" routeLength="1492.64" waitingTime="0.00" waitingCount="0" stopTime="0.00" timeLoss="17.77" rerouteNo="0" devices="tripinfo_leftW_33" vType="vehicleW_33" speedFactor="1.11" vaporized=""/>
    <tripinfo id="leftW_41" depart="26.00" departLane="edgeW_O_5" departPos="4.58" departSpeed="0.00" departDelay="0.00" arrival="103.00" arrivalLane="edgeN_I_4" arrivalPos="579.30" arrivalSpeed="23.24" duration="77.00" routeLength="1493.19" waitingTime="0.00" waitingCount="0" stopTime="0.00" timeLoss="16.16" rerouteNo="0" devices="tripinfo_leftW_41" vType="vehicleW_41" speedFactor="1.15" vaporized=""/>
    <tripinfo id="straightE_49" depart="33.00" departLane="edgeE_O_4" departPos="4.61" departSpeed="0.00" departDelay="0.00" arrival="106.00" arrivalLane="edgeW_I_1" arrivalPos="882.50" arrivalSpeed="16.96" duration="73.00" routeLength="1195.39" waitingTime="0.00" waitingCount="0" stopTime="0.00" timeLoss="7.69" rerouteNo="0" devices="tripinfo_straightE_49" vType="vehicleE_49" speedFactor="1.02" vaporized=""/>
    <tripinfo id="straightE_55" depart="38.00" departLane="edgeE_O_5" departPos="5.53" departSpeed="0.00" departDelay="0.00" arrival="113.00" arrivalLane="edgeW_I_1" arrivalPos="882.50" arrivalSpeed="15.26" duration="75.00" routeLength="1194.47" waitingTime="0.00" waitingCount="0" stopTime="0.00" timeLoss="7.66" rerouteNo="0" devices="tripinfo_straightE_55" vType="vehicleE_55" speedFactor="1.00" vaporized=""/>
    <tripinfo id="rightW_36" depart="23.00" departLane="edgeW_O_1" departPos="4.56" departSpeed="0.00" departDelay="0.00" arrival="115.00" arrivalLane="edgeS_I_1" arrivalPos="879.30" arrivalSpeed="20.57" duration="92.00" routeLength="1770.08" waitingTime="0.00" waitingCount="0" stopTime="0.00" timeLoss="15.06" rerouteNo="0" devices="tripinfo_rightW_36" vType="vehicleW_36" speedFactor="1.08" vaporized=""/>
    <tripinfo id="uturnW_10" depart="9.00" departLane="edgeW_O_5" departPos="4.90" departSpeed="0.00" departDelay="0.00" arrival="119.00" arrivalLane="edgeW_I_2" arrivalPos="882.50" arrivalSpeed="17.66" duration="110.00" routeLength="1764.78" waitingTime="0.00" waitingCount="0" stopTime="0.00" timeLoss="24.95" rerouteNo="0" devices="tripinfo_uturnW_10" vType="vehicleW_10" speedFactor="1.08" vaporized=""/>
    <tripinfo id="straightE_63" depart="49.00" departLane="edgeE_O_5" departPos="5.31" departSpeed="0.00" departDelay="0.00" arrival="129.00" arrivalLane="edgeW_I_1" arrivalPos="882.50" arrivalSpeed="15.42" duration="80.00" routeLength="1194.69" waitingTime="0.00" waitingCount="0" stopTime="0.00" timeLoss="8.30" rerouteNo="0" devices="tripinfo_straightE_63" vType="vehicleE_63" speedFactor="0.93" vaporized=""/>
    <tripinfo id="rightS_3" depart="2.00" departLane="edgeS_O_1" departPos="4.62" departSpeed="0.00" departDelay="0.00" arrival="149.00" arrivalLane="edgeE_I_1" arrivalPos="282.50" arrivalSpeed="17.63" duration="147.00" routeLength="1167.34" waitingTime="75.00" waitingCount="1" stopTime="0.00" timeLoss="93.25" rerouteNo="0" devices="tripinfo_rightS_3" vType="vehicleS_3" speedFactor="1.07" vaporized=""/>
    <tripinfo id="rightS_48" depart="33.00" departLane="edgeS_O_1" departPos="4.38" departSpeed="0.00" departDelay="0.00" arrival="157.00" arrivalLane="edgeE_I_2" arrivalPos="282.50" arrivalSpeed="17.32" duration="124.00" routeLength="1167.58" waitingTime="41.00" waitingCount="1" stopTime="0.00" timeLoss="70.51" rerouteNo="0" devices="tripinfo_rightS_48" vType="vehicleS_48" speedFactor="1.08" vaporized=""/>
    <tripinfo id="rightS_92" depart="83.00" departLane="edgeS_O_1" departPos="4.89" departSpeed="0.00" departDelay="0.00" arrival="159.00" arrivalLane="edgeE_I_2" arrivalPos="282.50" arrivalSpeed="18.15" duration="76.00" routeLength="1167.07" waitingTime="3.00" waitingCount="1" stopTime="0.00" timeLoss="25.25" rerouteNo="0" devices="tripinfo_rightS_92" vType="vehicleS_92" speedFactor="1.14" vaporized=""/>
    <tripinfo id="straightS_18" depart="14.00" departLane="edgeS_O_3" departPos="5.06" departSpeed="0.00" departDelay="0.00" arrival="160.00" arrivalLane="edgeN_I_2" arrivalPos="579.30" arrivalSpeed="19.18" duration="146.00" routeLength="1494.94" waitingTime="64.00" waitingCount="1" stopTime="0.00" timeLoss="76.36" rerouteNo="0" devices="tripinfo_straightS_18" vType="vehicleS_18" speedFactor="0.99" vaporized=""/>
    <tripinfo id="straightS_32" depart="20.00" departLane="edgeS_O_3" departPos="5.08" departSpeed="0.00" departDelay="0.00" arrival="160.00" arrivalLane="edgeN_I_3" arrivalPos="579.30" arrivalSpeed="22.28" duration="140.00" routeLength="1494.92" waitingTime="56.00" waitingCount="1" stopTime="0.00" timeLoss="80.10" rerouteNo="0" devices="tripinfo_straightS_32" vType="vehicleS_32" speedFactor="1.16" vaporized=""/>
    <tripinfo id="rightS_44" depart="30.00" departLane="edgeS_O_1" departPos="5.47" departSpeed="0.00" departDelay="0.00" arrival="160.00" arrivalLane="edgeE_I_1" arrivalPos="282.50" arrivalSpeed="13.16" duration="130.00" routeLength="1166.49" waitingTime="43.00" waitingCount="1" stopTime="0.00" timeLoss="56.43" rerouteNo="0" devices="tripinfo_rightS_44" vType="vehicleS_44" speedFactor="0.78" vaporized=""/>
    <tripinfo id="straightS_0" depart="0.00" departLane="edgeS_O_3" departPos="4.44" departSpeed="0.00" departDelay="0.00" arrival="161.00" arrivalLane="edgeN_I_1" arrivalPos="579.30" arrivalSpeed="19.93" duration="161.00" routeLength="1495.56" waitingTime="78.00" waitingCount="1" stopTime="0.00" timeLoss="95.27" rerouteNo="0" devices="tripinfo_straightS_0" vType="vehicleS_0" speedFactor="1.06" vaporized=""/>
    <tripinfo id="rightS_97" depart="89.00" departLane="edgeS_O_1" departPos="4.62" departSpeed="0.00" departDelay="0.00" arrival="162.00" arrivalLane="edgeE_I_1" arrivalPos="282.50" arrivalSpeed="17.16" duration="73.00" routeLength="1167.34" waitingTime="0.00" waitingCount="0" stopTime="0.00" timeLoss="19.49" rerouteNo="0" devices="tripinfo_rightS_97" vType="vehicleS_97" speedFactor="1.07" vaporized=""/>
    <tripinfo id="straightS_26" depart="18.00" departLane="edgeS_O_1" departPos="4.96" departSpeed="0.00" departDelay="0.00" arrival="164.00" arrivalLane="edgeN_I_2" arrivalPos="579.30" arrivalSpeed="19.09" duration="146.00" routeLength="1495.04" waitingTime="57.00" waitingCount="1" stopTime="0.00" timeLoss="74.25" rerouteNo="0" devices="tripinfo_straightS_26" vType="vehicleS_26" speedFactor="0.97" vaporized=""/>
    <tripinfo id="straightS_22" depart="16.00" departLane="edgeS_O_2" departPos="5.60" departSpeed="0.00" departDelay="0.00" arrival="166.00" arrivalLane="edgeN_I_1" arrivalPos="579.30" arrivalSpeed="17.56" duration="150.00" routeLength="1494.40" waitingTime="57.00" waitingCount="1" stopTime="0.00" timeLoss="70.20" rerouteNo="0" devices="tripinfo_straightS_22" vType="vehicleS_22" speedFactor="0.87" vaporized=""/>
    <tripinfo id="straightS_45" depart="31.00" departLane="edgeS_O_2" departPos="4.72" departSpeed="0.00" departDelay="0.00" arrival="166.00" arrivalLane="edgeN_I_3" arrivalPos="579.30" arrivalSpeed="19.24" duration="135.00" routeLength="1495.28" waitingTime="43.00" waitingCount="1" stopTime="0.00" timeLoss="63.61" rerouteNo="0" devices="tripinfo_straightS_45" vType="vehicleS_45" speedFactor="0.98" vaporized=""/>
    <tripinfo id="straightS_39" depart="25.00" departLane="edgeS_O_3" departPos="5.11" departSpeed="0.00" departDelay="0.00" arrival="167.00" arrivalLane="edgeN_I_3" arrivalPos="579.30" arrivalSpeed="18.95" duration="142.00" routeLength="1494.89" waitingTime="51.00" waitingCount="1" stopTime="0.00" timeLoss="68.08" rerouteNo="0" devices="tripinfo_straightS_39" vType="vehicleS_39" speedFactor="0.94" vaporized=""/>
    <tripinfo id="straightS_50" depart="35.00" departLane="edgeS_O_3" departPos="4.69" departSpeed="0.00" departDelay="0.00" arrival="168.00" arrivalLane="edgeN_I_4" arrivalPos="579.30" arrivalSpeed="19.42" duration="133.00" routeLength="1495.31" waitingTime="43.00" waitingCount="1" stopTime="0.00" timeLoss="62.48" rerouteNo="0" devices="tripinfo_straightS_50" vType="vehicleS_50" speedFactor="0.98" vaporized=""/>
    <tripinfo id="straightS_65" depart="50.00" departLane="edgeS_O_1" departPos="5.63" departSpeed="0.00" departDelay="0.00" arrival="168.00" arrivalLane="edgeN_I_2" arrivalPos="579.30" arrivalSpeed="20.37" duration="118.00" routeLength="1494.37" waitingTime="29.00" waitingCount="1" stopTime="0.00" timeLoss="52.30" rerouteNo="0" devices="tripinfo_straightS_65" vType="vehicleS_65" speedFactor="1.06" vaporized=""/>
    <tripinfo id="straightS_20" depart="15.00" departLane="edgeS_O_1" departPos="5.03" departSpeed="0.00" departDelay="0.00" arrival="169.00" arrivalLane="edgeN_I_1" arrivalPos="579.30" arrivalSpeed="18.28" duration="154.00" routeLength="1494.97" waitingTime="58.00" waitingCount="1" stopTime="0.00" timeLoss="77.44" rerouteNo="0" devices="tripinfo_straightS_20" vType="vehicleS_20" speedFactor="0.91" vaporized=""/>
    <tripinfo id="straightS_72" depart="54.00" departLane="edgeS_O_3" departPos="4.92" departSpeed="0.00" departDelay="0.00" arrival="169.00" arrivalLane="edgeN_I_3" arrivalPos="579.30" arrivalSpeed="21.13" duration="115.00" routeLength="1495.08" waitingTime="28.00" waitingCount="2" stopTime="0.00" timeLoss="52.58" rerouteNo="0" devices="tripinfo_straightS_72" vType="vehicleS_72" speedFactor="1.11" vaporized=""/>
    <tripinfo id="straightS_58" depart="43.00" departLane="edgeS_O_3" departPos="5.24" departSpeed="0.00" departDelay="0.00" arrival="170.00" arrivalLane="edgeN_I_4" arrivalPos="579.30" arrivalSpeed="21.74" duration="127.00" routeLength="1494.76" waitingTime="41.00" waitingCount="1" stopTime="0.00" timeLoss="64.33" rerouteNo="0" devices="tripinfo_straightS_58" vType="vehicleS_58" speedFactor="1.11" vaporized=""/>
    <tripinfo id="straightS_78" depart="62.00" departLane="edgeS_O_3" departPos="4.86" departSpeed="0.00" departDelay="1.00" arrival="171.00" arrivalLane="edgeN_I_3" arrivalPos="579.30" arrivalSpeed="20.14" duration="109.00" routeLength="1495.14" waitingTime="25.00" waitingCount="1" stopTime="0.00" timeLoss="43.08" rerouteNo="0" devices="tripinfo_straightS_78" vType="vehicleS_78" speedFactor="1.06" vaporized=""/>
    <tripinfo id="straightS_103" depart="95.00" departLane="edgeS_O_2" departPos="4.82" departSpeed="0.00" departDelay="0.00" arrival="171.00" arrivalLane="edgeN_I_4" arrivalPos="579.30" arrivalSpeed="21.74" duration="76.00" routeLength="1495.18" waitingTime="0.00" waitingCount="0" stopTime="0.00" timeLoss="16.80" rerouteNo="0" devices="tripinfo_straightS_103" vType="vehicleS_103" speedFactor="1.17" vaporized=""/>
    <tripinfo id="straightN_6" depart="7.00" departLane="edgeN_O_3" departPos="4.34" departSpeed="0.00" departDelay="0.00" arrival="173.00" arrivalLane="edgeS_I_1" arrivalPos="879.30" arrivalSpeed="20.83" duration="166.00" routeLength="1495.66" waitingTime="87.00" waitingCount="1" stopTime="0.00" timeLoss="108.79" rerouteNo="0" devices="tripinfo_straightN_6" vType="vehicleN_6" speedFactor="1.24" vaporized=""/>
    <tripinfo id="straightN_9" depart="10.00" departLane="edgeN_O_3" departPos="4.99" departSpeed="0.00" departDelay="1.00" arrival="173.00" arrivalLane="edgeS_I_2" arrivalPos="879.30" arrivalSpeed="21.05" duration="163.00" routeLength="1495.01" waitingTime="81.00" waitingCount="1" stopTime="0.00" timeLoss="97.66" rerouteNo="0" devices="tripinfo_straightN_9" vType="vehicleN_9" speedFactor="1.09" vaporized=""/>
    <tripinfo id="rightN_2" depart="2.00" departLane="edgeN_O_1" departPos="5.31" departSpeed="0.00" departDelay="0.00" arrival="174.00" arrivalLane="edgeW_I_1" arrivalPos="882.50" arrivalSpeed="21.28" duration="172.00" routeLength="1466.65" waitingTime="91.00" waitingCount="1" stopTime="0.00" timeLoss="108.97" rerouteNo="0" devices="tripinfo_rightN_2" vType="vehicleN_2" speedFactor="1.27" vaporized=""/>
    <tripinfo id="straightN_15" depart="12.00" departLane="edgeN_O_1" departPos="4.95" departSpeed="0.00" departDelay="0.00" arrival="174.00" arrivalLane="edgeS_I_3" arrivalPos="879.30" arrivalSpeed="21.29" duration="162.00" routeLength="1495.05" waitingTime="81.00" waitingCount="1" stopTime="0.00" timeLoss="97.51" rerouteNo="0" devices="tripinfo_straightN_15" vType="vehicleN_15" speedFactor="1.10" vaporized=""/>
    <tripinfo id="straightS_100" depart="92.00" departLane="edgeS_O_1" departPos="4.54" departSpeed="0.00" departDelay="0.00" arrival="174.00" arrivalLane="edgeN_I_2" arrivalPos="579.30" arrivalSpeed="20.42" duration="82.00" routeLength="1495.46" waitingTime="0.00" waitingCount="0" stopTime="0.00" timeLoss="14.89" rerouteNo="0" devices="tripinfo_straightS_100" vType="vehicleS_100" speedFactor="1.04" vaporized=""/>
    <tripinfo id="straightS_76" depart="59.00" departLane="edgeS_O_3" departPos="4.57" departSpeed="0.00" departDelay="0.00" arrival="177.00" arrivalLane="edgeN_I_1" arrivalPos="579.30" arrivalSpeed="15.52" duration="118.00" routeLength="1495.43" waitingTime="13.00" waitingCount="1" stopTime="0.00" timeLoss="31.56" rerouteNo="0" devices="tripinfo_straightS_76" vType="vehicleS_76" speedFactor="0.81" vaporized=""/>
    <tripinfo id="straightN_13" depart="13.00" departLane="edgeN_O_3" departPos="4.33" departSpeed="0.00" departDelay="2.00" arrival="179.00" arrivalLane="edgeS_I_1" arrivalPos="879.30" arrivalSpeed="19.90" duration="166.00" routeLength="1495.67" waitingTime="77.00" waitingCount="1" stopTime="0.00" timeLoss="95.62" rerouteNo="0" devices="tripinfo_straightN_13" vType="vehicleN_13" speedFactor="1.02" vaporized=""/>
    <tripinfo id="straightW_61" depart="47.00" departLane="edgeW_O_3" departPos="4.71" departSpeed="0.00" departDelay="0.00" arrival="179.00" arrivalLane="edgeE_I_3" arrivalPos="282.50" arrivalSpeed="16.90" duration="132.00" routeLength="1195.29" waitingTime="64.00" waitingCount="1" stopTime="0.00" timeLoss="78.54" rerouteNo="0" devices="tripinfo_straightW_61" vType="vehicleW_61" speedFactor="1.07" vaporized=""/>
    <tripinfo id="straightS_79" depart="64.00" departLane="edgeS_O_3" departPos="4.17" departSpeed="0.00" departDelay="1.00" arrival="180.00" arrivalLane="edgeN_I_1" arrivalPos="579.30" arrivalSpeed="15.69" duration="116.00" routeLength="1495.84" waitingTime="14.00" waitingCount="1" stopTime="0.00" timeLoss="29.36" rerouteNo="0" devices="tripinfo_straightS_79" vType="vehicleS_79" speedFactor="0.81" vaporized=""/>
    <tripinfo id="straightW_51" depart="35.00" departLane="edgeW_O_4" departPos="4.08" departSpeed="0.00" departDelay="0.00" arrival="181.00" arrivalLane="edgeE_I_2" arrivalPos="282.50" arrivalSpeed="15.76" duration="146.00" routeLength="1195.92" waitingTime="75.00" waitingCount="1" stopTime="0.00" timeLoss="89.00" rerouteNo="0" devices="tripinfo_straightW_51" vType="vehicleW_51" speedFactor="1.00" vaporized=""/>
    <tripinfo id="straightW_53" depart="36.00" departLane="edgeW_O_3" departPos="5.08" departSpeed="0.00" departDelay="0.00" arrival="182.00" arrivalLane="edgeE_I_2" arrivalPos="282.50" arrivalSpeed="16.30" duration="146.00" routeLength="1194.92" waitingTime="71.00" waitingCount="1" stopTime="0.00" timeLoss="88.03" rerouteNo="0" devices="tripinfo_straightW_53" vType="vehicleW_53" speedFactor="0.98" vaporized=""/>
    <tripinfo id="rightN_8" depart="8.00" departLane="edgeN_O_1" departPos="5.00" departSpeed="0.00" departDelay="0.00" arrival="183.00" arrivalLane="edgeW_I_1" arrivalPos="882.50" arrivalSpeed="18.10" duration="175.00" routeLength="1466.96" waitingTime="85.00" waitingCount="1" stopTime="0.00" timeLoss="102.71" rerouteNo="0" devices="tripinfo_rightN_8" vType="vehicleN_8" speedFactor="1.11" vaporized=""/>
    <tripinfo id="straightN_19" depart="15.00" departLane="edgeN_O_1" departPos="4.68" departSpeed="0.00" departDelay="0.00" arrival="183.00" arrivalLane="edgeS_I_1" arrivalPos="879.30" arrivalSpeed="18.00" duration="168.00" routeLength="1495.32" waitingTime="77.00" waitingCount="1" stopTime="0.00" timeLoss="92.76" rerouteNo="0" devices="tripinfo_straightN_19" vType="vehicleN_19" speedFactor="0.94" vaporized=""/>
    <tripinfo id="straightN_47" depart="33.00" departLane="edgeN_O_3" departPos="5.26" departSpeed="0.00" departDelay="0.00" arrival="183.00" arrivalLane="edgeS_I_4" arrivalPos="879.30" arrivalSpeed="21.07" duration="150.00" routeLength="1494.74" waitingTime="64.00" waitingCount="1" stopTime="0.00" timeLoss="84.77" rerouteNo="0" devices="tripinfo_straightN_47" vType="vehicleN_47" speedFactor="1.09" vaporized=""/>
    <tripinfo id="straightW_62" depart="49.00" departLane="edgeW_O_4" departPos="5.48" departSpeed="0.00" departDelay="0.00" arrival="183.00" arrivalLane="edgeE_I_4" arrivalPos="282.50" arrivalSpeed="15.67" duration="134.00" routeLength="1194.51" waitingTime="61.00" waitingCount="1" stopTime="0.00" timeLoss="77.17" rerouteNo="0" devices="tripinfo_straightW_62" vType="vehicleW_62" speedFactor="1.00" vaporized=""/>
    <tripinfo id="straightN_25" depart="18.00" departLane="edgeN_O_3" departPos="4.83" departSpeed="0.00" departDelay="0.00" arrival="184.00" arrivalLane="edgeS_I_2" arrivalPos="879.30" arrivalSpeed="19.67" duration="166.00" routeLength="1495.17" waitingTime="73.00" waitingCount="1" stopTime="0.00" timeLoss="92.46" rerouteNo="0" devices="tripinfo_straightN_25" vType="vehicleN_25" speedFactor="0.97" vaporized=""/>
    <tripinfo id="straightN_31" depart="24.00" departLane="edgeN_O_3" departPos="5.48" departSpeed="0.00" departDelay="4.00" arrival="185.00" arrivalLane="edgeS_I_3" arrivalPos="879.30" arrivalSpeed="21.62" duration="161.00" routeLength="1494.52" waitingTime="71.00" waitingCount="1" stopTime="0.00" timeLoss="95.87" rerouteNo="0" devices="tripinfo_straightN_31" vType="vehicleN_31" speedFactor="1.10" vaporized=""/>
    <tripinfo id="straightN_54" depart="38.00" departLane="edgeN_O_1" departPos="4.12" departSpeed="0.00" departDelay="1.00" arrival="185.00" arrivalLane="edgeS_I_4" arrivalPos="879.30" arrivalSpeed="22.55" duration="147.00" routeLength="1495.88" waitingTime="59.00" waitingCount="1" stopTime="0.00" timeLoss="84.74" rerouteNo="0" devices="tripinfo_straightN_54" vType="vehicleN_54" speedFactor="1.15" vaporized=""/>
    <tripinfo id="straightW_60" depart="46.00" departLane="edgeW_O_5" departPos="5.55" departSpeed="0.00" departDelay="2.00" arrival="185.00" arrivalLane="edgeE_I_2" arrivalPos="282.50" arrivalSpeed="14.38" duration="139.00" routeLength="1194.45" waitingTime="56.00" waitingCount="2" stopTime="0.00" timeLoss="76.05" rerouteNo="0" devices="tripinfo_straightW_60" vType="vehicleW_60" speedFactor="0.90" vaporized=""/>
    <tripinfo id="straightW_94" depart="86.00" departLane="edgeW_O_5" departPos="5.70" departSpeed="0.00" departDelay="0.00" arrival="185.00" arrivalLane="edgeE_I_3" arrivalPos="282.50" arrivalSpeed="17.57" duration="99.00" routeLength="1194.30" waitingTime="18.00" waitingCount="2" stopTime="0.00" timeLoss="51.97" rerouteNo="0" devices="tripinfo_straightW_94" vType="vehicleW_94" speedFactor="1.22" vaporized=""/>
    <tripinfo id="straightW_105" depart="97.00" departLane="edgeW_O_2" departPos="4.66" departSpeed="0.00" departDelay="0.00" arrival="185.00" arrivalLane="edgeE_I_4" arrivalPos="282.50" arrivalSpeed="17.86" duration="88.00" routeLength="1195.34" waitingTime="12.00" waitingCount="1" stopTime="0.00" timeLoss="36.45" rerouteNo="0" devices="tripinfo_straightW_105" vType="vehicleW_105" speedFactor="1.12" vaporized=""/>
    <tripinfo id="straightW_111" depart="106.00" departLane="edgeW_O_5" departPos="5.11" departSpeed="0.00" departDelay="0.00" arrival="187.00" arrivalLane="edgeE_I_3" arrivalPos="282.50" arrivalSpeed="15.61" duration="81.00" routeLength="1194.89" waitingTime="0.00" waitingCount="0" stopTime="0.00" timeLoss="21.67" rerouteNo="0" devices="tripinfo_straightW_111" vType="vehicleW_111" speedFactor="0.96" vaporized=""/>
    <tripinfo id="straightN_29" depart="21.00" departLane="edgeN_O_3" departPos="5.65" departSpeed="0.00" departDelay="2.00" arrival="188.00" arrivalLane="edgeS_I_2" arrivalPos="879.30" arrivalSpeed="17.76" duration="167.00" routeLength="1494.35" waitingTime="72.00" waitingCount="1" stopTime="0.00" timeLoss="87.20" rerouteNo="0" devices="tripinfo_straightN_29" vType="vehicleN_29" speedFactor="0.89" vaporized=""/>
    <tripinfo id="straightN_35" depart="22.00" departLane="edgeN_O_2" departPos="4.19" departSpeed="0.00" departDelay="0.00" arrival="188.00" arrivalLane="edgeS_I_1" arrivalPos="879.30" arrivalSpeed="17.34" duration="166.00" routeLength="1495.81" waitingTime="67.00" waitingCount="1" stopTime="0.00" timeLoss="94.02" rerouteNo="0" devices="tripinfo_straightN_35" vType="vehicleN_35" speedFactor="0.99" vaporized=""/>