<?xml version="1.0" encoding="UTF-8"?>

<!-- generated on 2021-10-23 05:40:37 by Eclipse SUMO sumo Version 1.10.0
<configuration xmlns:xsi="http://www.w3.org/2001/XMLSchema-instance" xsi:noNamespaceSchemaLocation="http://sumo.dlr.de/xsd/sumoConfiguration.xsd">

    <input>
        <net-file value="data6/cross.net.xml"/>
        <route-files value="data6/cross.rou.xml"/>
        <additional-files value="data6/cross.tls.xml"/>
    </input>

    <output>
        <tripinfo-output value="data6/tripinfo.xml"/>
        <tripinfo-output.write-unfinished value="true"/>
    </output>

    <time>
        <begin value="0"/>
        <step-length value="1"/>
    </time>

    <processing>
        <threads value="5"/>
        <time-to-teleport value="-1"/>
    </processing>

    <report>
        <verbose value="true"/>
        <no-warnings value="true"/>
        <no-step-log value="true"/>
    </report>

    <traci_server>
        <remote-port value="49281"/>
    </traci_server>

    <gui_only>
        <gui-settings-file value="data6/viewsettings.xml"/>
        <tracker-interval value="1"/>
    </gui_only>

</configuration>
-->

<tripinfos xmlns:xsi="http://www.w3.org/2001/XMLSchema-instance" xsi:noNamespaceSchemaLocation="http://sumo.dlr.de/xsd/tripinfo_file.xsd">
    <tripinfo id="straightN_2" depart="1.00" departLane="edgeN_O_2" departPos="5.37" departSpeed="0.00" departDelay="0.00" arrival="72.00" arrivalLane="edgeS_I_1" arrivalPos="588.90" arrivalSpeed="15.56" duration="71.00" routeLength="1194.63" waitingTime="0.00" waitingCount="0" stopTime="0.00" timeLoss="8.11" rerouteNo="0" devices="tripinfo_straightN_2" vType="vehicleN_2" speedFactor="1.17" vaporized=""/>
    <tripinfo id="straightS_0" depart="0.00" departLane="edgeS_O_1" departPos="4.39" departSpeed="0.00" departDelay="0.00" arrival="79.00" arrivalLane="edgeN_I_1" arrivalPos="588.90" arrivalSpeed="13.95" duration="79.00" routeLength="1195.61" waitingTime="0.00" waitingCount="0" stopTime="0.00" timeLoss="7.43" rerouteNo="0" devices="tripinfo_straightS_0" vType="vehicleS_0" speedFactor="1.03" vaporized=""/>
    <tripinfo id="straightS_6" depart="6.00" departLane="edgeS_O_1" departPos="4.29" departSpeed="0.00" departDelay="0.00" arrival="81.00" arrivalLane="edgeN_I_1" arrivalPos="588.90" arrivalSpeed="14.29" duration="75.00" routeLength="1195.71" waitingTime="0.00" waitingCount="0" stopTime="0.00" timeLoss="8.00" rerouteNo="0" devices="tripinfo_straightS_6" vType="vehicleS_6" speedFactor="1.09" vaporized=""/>
    <tripinfo id="straightN_12" depart="10.00" departLane="edgeN_O_2" departPos="5.27" departSpeed="0.00" departDelay="0.00" arrival="94.00" arrivalLane="edgeS_I_1" arrivalPos="588.90" arrivalSpeed="12.84" duration="84.00" routeLength="1194.73" waitingTime="0.00" waitingCount="0" stopTime="0.00" timeLoss="7.44" rerouteNo="0" devices="tripinfo_straightN_12" vType="vehicleN_12" speedFactor="0.96" vaporized=""/>
    <tripinfo id="straightN_9" depart="8.00" departLane="edgeN_O_2" departPos="4.46" departSpeed="0.00" departDelay="0.00" arrival="96.00" arrivalLane="edgeS_I_1" arrivalPos="588.90" arrivalSpeed="12.15" duration="88.00" routeLength="1195.55" waitingTime="0.00" waitingCount="0" stopTime="0.00" timeLoss="7.13" rerouteNo="0" devices="tripinfo_straightN_9" vType="vehicleN_9" speedFactor="0.91" vaporized=""/>
    <tripinfo id="leftE_4" depart="4.00" departLane="edgeE_O_1" departPos="4.50" departSpeed="0.00" departDelay="0.00" arrival="104.00" arrivalLane="edgeS_I_1" arrivalPos="588.90" arrivalSpeed="13.49" duration="100.00" routeLength="1093.79" waitingTime="4.00" waitingCount="1" stopTime="0.00" timeLoss="16.33" rerouteNo="0" devices="tripinfo_leftE_4" vType="vehicleE_4" speedFactor="1.05" vaporized=""/>
    <tripinfo id="straightW_3" depart="1.00" departLane="edgeW_O_1" departPos="4.58" departSpeed="0.00" departDelay="0.00" arrival="109.00" arrivalLane="edgeE_I_1" arrivalPos="488.90" arrivalSpeed="27.50" duration="108.00" routeLength="1495.42" waitingTime="0.00" waitingCount="0" stopTime="0.00" timeLoss="9.94" rerouteNo="0" devices="tripinfo_straightW_3" vType="vehicleW_3" speedFactor="1.08" vaporized=""/>
    <tripinfo id="leftE_29" depart="22.00" departLane="edgeE_O_2" departPos="5.11" departSpeed="0.00" departDelay="0.00" arrival="113.00" arrivalLane="edgeS_I_1" arrivalPos="588.90" arrivalSpeed="13.32" duration="91.00" routeLength="1093.18" waitingTime="0.00" waitingCount="0" stopTime="0.00" timeLoss="7.56" rerouteNo="0" devices="tripinfo_leftE_29" vType="vehicleE_29" speedFactor="1.05" vaporized=""/>
    <tripinfo id="leftE_42" depart="32.00" departLane="edgeE_O_2" departPos="4.56" departSpeed="0.00" departDelay="0.00" arrival="128.00" arrivalLane="edgeS_I_1" arrivalPos="588.90" arrivalSpeed="12.75" duration="96.00" routeLength="1093.73" waitingTime="0.00" waitingCount="0" stopTime="0.00" timeLoss="8.42" rerouteNo="0" devices="tripinfo_leftE_42" vType="vehicleE_42" speedFactor="1.01" vaporized=""/>
    <tripinfo id="straightE_5" depart="7.00" departLane="edgeE_O_1" departPos="5.13" departSpeed="0.00" departDelay="2.00" arrival="130.00" arrivalLane="edgeW_I_1" arrivalPos="988.90" arrivalSpeed="29.44" duration="123.00" routeLength="1494.87" waitingTime="34.00" waitingCount="1" stopTime="0.00" timeLoss="53.15" rerouteNo="0" devices="tripinfo_straightE_5" vType="vehicleE_5" speedFactor="1.19" vaporized=""/>
    <tripinfo id="leftW_26" depart="22.00" departLane="edgeW_O_2" departPos="5.63" departSpeed="0.00" departDelay="1.00" arrival="130.00" arrivalLane="edgeN_I_2" arrivalPos="588.90" arrivalSpeed="7.15" duration="108.00" routeLength="1595.29" waitingTime="1.00" waitingCount="1" stopTime="0.00" timeLoss="13.10" rerouteNo="0" devices="tripinfo_leftW_26" vType="vehicleW_26" speedFactor="0.93" vaporized="teleport"/>
    <tripinfo id="straightW_16" depart="13.00" departLane="edgeW_O_1" departPos="4.13" departSpeed="0.00" departDelay="0.00" arrival="133.00" arrivalLane="edgeE_I_1" arrivalPos="488.90" arrivalSpeed="23.28" duration="120.00" routeLength="1495.87" waitingTime="0.00" waitingCount="0" stopTime="0.00" timeLoss="10.36" rerouteNo="0" devices="tripinfo_straightW_16" vType="vehicleW_16" speedFactor="0.97" vaporized=""/>
    <tripinfo id="leftE_1" depart="0.00" departLane="edgeE_O_2" departPos="4.40" departSpeed="0.00" departDelay="0.00" arrival="135.00" arrivalLane="edgeS_I_1" arrivalPos="588.90" arrivalSpeed="13.81" duration="135.00" routeLength="1096.51" waitingTime="40.00" waitingCount="1" stopTime="0.00" timeLoss="53.28" rerouteNo="0" devices="tripinfo_leftE_1" vType="vehicleE_1" speedFactor="1.08" vaporized=""/>
    <tripinfo id="straightE_8" depart="10.00" departLane="edgeE_O_1" departPos="5.49" departSpeed="0.00" departDelay="3.00" arrival="136.00" arrivalLane="edgeW_I_1" arrivalPos="988.90" arrivalSpeed="25.63" duration="126.00" routeLength="1494.51" waitingTime="32.00" waitingCount="1" stopTime="0.00" timeLoss="46.39" rerouteNo="0" devices="tripinfo_straightE_8" vType="vehicleE_8" speedFactor="1.03" vaporized=""/>
    <tripinfo id="straightW_35" depart="26.00" departLane="edgeW_O_1" departPos="4.46" departSpeed="0.00" departDelay="0.00" arrival="137.00" arrivalLane="edgeE_I_2" arrivalPos="488.90" arrivalSpeed="27.40" duration="111.00" routeLength="1495.54" waitingTime="0.00" waitingCount="0" stopTime="0.00" timeLoss="13.97" rerouteNo="0" devices="tripinfo_straightW_35" vType="vehicleW_35" speedFactor="1.10" vaporized=""/>
    <tripinfo id="straightW_11" depart="9.00" departLane="edgeW_O_1" departPos="5.68" departSpeed="0.00" departDelay="0.00" arrival="139.00" arrivalLane="edgeE_I_1" arrivalPos="488.90" arrivalSpeed="22.73" duration="130.00" routeLength="1494.32" waitingTime="0.00" waitingCount="0" stopTime="0.00" timeLoss="11.65" rerouteNo="0" devices="tripinfo_straightW_11" vType="vehicleW_11" speedFactor="0.90" vaporized=""/>
    <tripinfo id="leftE_61" depart="58.00" departLane="edgeE_O_2" departPos="4.98" departSpeed="0.00" departDelay="0.00" arrival="140.00" arrivalLane="edgeS_I_1" arrivalPos="588.90" arrivalSpeed="16.11" duration="82.00" routeLength="1093.31" waitingTime="0.00" waitingCount="0" stopTime="0.00" timeLoss="7.69" rerouteNo="0" devices="tripinfo_leftE_61" vType="vehicleE_61" speedFactor="1.19" vaporized=""/>
    <tripinfo id="straightE_10" depart="13.00" departLane="edgeE_O_1" departPos="5.28" departSpeed="0.00" departDelay="5.00" arrival="141.00" arrivalLane="edgeW_I_1" arrivalPos="988.90" arrivalSpeed="23.37" duration="128.00" routeLength="1494.72" waitingTime="27.00" waitingCount="1" stopTime="0.00" timeLoss="40.98" rerouteNo="0" devices="tripinfo_straightE_10" vType="vehicleE_10" speedFactor="0.95" vaporized=""/>
    <tripinfo id="straightE_15" depart="19.00" departLane="edgeE_O_1" departPos="5.66" departSpeed="0.00" departDelay="7.00" arrival="143.00" arrivalLane="edgeW_I_2" arrivalPos="988.90" arrivalSpeed="24.94" duration="124.00" routeLength="1494.34" waitingTime="23.00" waitingCount="1" stopTime="0.00" timeLoss="41.25" rerouteNo="0" devices="tripinfo_straightE_15" vType="vehicleE_15" speedFactor="1.00" vaporized=""/>
    <tripinfo id="straightE_13" depart="16.00" departLane="edgeE_O_1" departPos="5.47" departSpeed="0.00" departDelay="5.00" arrival="145.00" arrivalLane="edgeW_I_1" arrivalPos="988.90" arrivalSpeed="21.56" duration="129.00" routeLength="1494.53" waitingTime="24.00" waitingCount="1" stopTime="0.00" timeLoss="36.80" rerouteNo="0" devices="tripinfo_straightE_13" vType="vehicleE_13" speedFactor="0.90" vaporized=""/>
    <tripinfo id="straightE_27" depart="24.00" departLane="edgeE_O_1" departPos="4.85" departSpeed="0.00" departDelay="3.00" arrival="145.00" arrivalLane="edgeW_I_2" arrivalPos="988.90" arrivalSpeed="25.60" duration="121.00" routeLength="1495.14" waitingTime="19.00" waitingCount="1" stopTime="0.00" timeLoss="42.35" rerouteNo="0" devices="tripinfo_straightE_27" vType="vehicleE_27" speedFactor="1.05" vaporized=""/>
    <tripinfo id="straightE_21" depart="21.00" departLane="edgeE_O_1" departPos="4.58" departSpeed="0.00" departDelay="2.00" arrival="150.00" arrivalLane="edgeW_I_1" arrivalPos="988.90" arrivalSpeed="22.62" duration="129.00" routeLength="1495.42" waitingTime="20.00" waitingCount="1" stopTime="0.00" timeLoss="35.78" rerouteNo="0" devices="tripinfo_straightE_21" vType="vehicleE_21" speedFactor="0.89" vaporized=""/>
    <tripinfo id="straightE_33" depart="26.00" departLane="edgeE_O_1" departPos="4.52" departSpeed="0.00" departDelay="1.00" arrival="151.00" arrivalLane="edgeW_I_1" arrivalPos="988.90" arrivalSpeed="24.21" duration="125.00" routeLength="1495.48" waitingTime="19.00" waitingCount="1" stopTime="0.00" timeLoss="38.39" rerouteNo="0" devices="tripinfo_straightE_33" vType="vehicleE_33" speedFactor="0.95" vaporized=""/>
    <tripinfo id="straightE_36" depart="29.00" departLane="edgeE_O_1" departPos="4.48" departSpeed="0.00" departDelay="3.00" arrival="151.00" arrivalLane="edgeW_I_2" arrivalPos="988.90" arrivalSpeed="25.64" duration="122.00" routeLength="1495.52" waitingTime="18.00" waitingCount="1" stopTime="0.00" timeLoss="39.87" rerouteNo="0" devices="tripinfo_straightE_36" vType="vehicleE_36" speedFactor="1.01" vaporized=""/>
    <tripinfo id="straightW_44" depart="34.00" departLane="edgeW_O_1" departPos="5.23" departSpeed="0.00" departDelay="0.00" arrival="153.00" arrivalLane="edgeE_I_1" arrivalPos="488.90" arrivalSpeed="26.59" duration="119.00" routeLength="1494.77" waitingTime="0.00" waitingCount="0" stopTime="0.00" timeLoss="18.29" rerouteNo="0" devices="tripinfo_straightW_44" vType="vehicleW_44" speedFactor="1.06" vaporized=""/>
    <tripinfo id="straightE_45" depart="35.00" departLane="edgeE_O_1" departPos="4.92" departSpeed="0.00" departDelay="0.00" arrival="153.00" arrivalLane="edgeW_I_2" arrivalPos="988.90" arrivalSpeed="26.52" duration="118.00" routeLength="1495.09" waitingTime="17.00" waitingCount="1" stopTime="0.00" timeLoss="39.29" rerouteNo="0" devices="tripinfo_straightE_45" vType="vehicleE_45" speedFactor="1.05" vaporized=""/>
    <tripinfo id="straightE_40" depart="32.00" departLane="edgeE_O_1" departPos="4.31" departSpeed="0.00" departDelay="3.00" arrival="155.00" arrivalLane="edgeW_I_1" arrivalPos="988.90" arrivalSpeed="23.95" duration="123.00" routeLength="1495.69" waitingTime="17.00" waitingCount="1" stopTime="0.00" timeLoss="37.41" rerouteNo="0" devices="tripinfo_straightE_40" vType="vehicleE_40" speedFactor="0.97" vaporized=""/>
    <tripinfo id="straightW_62" depart="59.00" departLane="edgeW_O_1" departPos="5.06" departSpeed="0.00" departDelay="0.00" arrival="159.00" arrivalLane="edgeE_I_1" arrivalPos="488.90" arrivalSpeed="29.59" duration="100.00" routeLength="1494.94" waitingTime="0.00" waitingCount="0" stopTime="0.00" timeLoss="9.52" rerouteNo="0" devices="tripinfo_straightW_62" vType="vehicleW_62" speedFactor="1.18" vaporized=""/>
    <tripinfo id="leftW_7" depart="7.00" departLane="edgeW_O_2" departPos="4.46" departSpeed="0.00" departDelay="0.00" arrival="160.00" arrivalLane="edgeN_I_1" arrivalPos="588.90" arrivalSpeed="12.11" duration="153.00" routeLength="1596.46" waitingTime="0.00" waitingCount="0" stopTime="0.00" timeLoss="12.21" rerouteNo="0" devices="tripinfo_leftW_7" vType="vehicleW_7" speedFactor="0.94" vaporized=""/>
    <tripinfo id="straightE_47" depart="38.00" departLane="edgeE_O_1" departPos="4.65" departSpeed="0.00" departDelay="1.00" arrival="162.00" arrivalLane="edgeW_I_1" arrivalPos="988.90" arrivalSpeed="21.69" duration="124.00" routeLength="1495.35" waitingTime="15.00" waitingCount="1" stopTime="0.00" timeLoss="32.18" rerouteNo="0" devices="tripinfo_straightE_47" vType="vehicleE_47" speedFactor="0.90" vaporized=""/>
    <tripinfo id="straightE_55" depart="47.00" departLane="edgeE_O_1" departPos="4.27" departSpeed="0.00" departDelay="0.00" arrival="162.00" arrivalLane="edgeW_I_2" arrivalPos="988.90" arrivalSpeed="27.06" duration="115.00" routeLength="1495.73" waitingTime="11.00" waitingCount="1" stopTime="0.00" timeLoss="37.64" rerouteNo="0" devices="tripinfo_straightE_55" vType="vehicleE_55" speedFactor="1.06" vaporized=""/>
    <tripinfo id="straightE_57" depart="54.00" departLane="edgeE_O_1" departPos="5.46" departSpeed="0.00" departDelay="0.00" arrival="164.00" arrivalLane="edgeW_I_2" arrivalPos="988.90" arrivalSpeed="28.52" duration="110.00" routeLength="1494.54" waitingTime="10.00" waitingCount="1" stopTime="0.00" timeLoss="39.19" rerouteNo="0" devices="tripinfo_straightE_57" vType="vehicleE_57" speedFactor="1.17" vaporized=""/>
    <tripinfo id="leftE_60" depart="57.00" departLane="edgeE_O_1" departPos="4.27" departSpeed="0.00" departDelay="1.00" arrival="164.00" arrivalLane="edgeS_I_1" arrivalPos="588.90" arrivalSpeed="12.16" duration="107.00" routeLength="1094.02" waitingTime="0.00" waitingCount="0" stopTime="0.00" timeLoss="8.73" rerouteNo="0" devices="tripinfo_leftE_60" vType="vehicleE_60" speedFactor="0.90" vaporized=""/>
    <tripinfo id="straightE_48" depart="40.00" departLane="edgeE_O_1" departPos="5.03" departSpeed="0.00" departDelay="2.00" arrival="165.00" arrivalLane="edgeW_I_1" arrivalPos="988.90" arrivalSpeed="22.01" duration="125.00" routeLength="1494.97" waitingTime="15.00" waitingCount="1" stopTime="0.00" timeLoss="31.47" rerouteNo="0" devices="tripinfo_straightE_48" vType="vehicleE_48" speedFactor="0.88" vaporized=""/>
    <tripinfo id="straightE_51" depart="43.00" departLane="edgeE_O_1" departPos="5.50" departSpeed="0.00" departDelay="1.00" arrival="167.00" arrivalLane="edgeW_I_1" arrivalPos="988.90" arrivalSpeed="21.02" duration="124.00" routeLength="1494.49" waitingTime="12.00" waitingCount="1" stopTime="0.00" timeLoss="31.32" rerouteNo="0" devices="tripinfo_straightE_51" vType="vehicleE_51" speedFactor="0.89" vaporized=""/>
    <tripinfo id="straightW_56" depart="50.00" departLane="edgeW_O_1" departPos="5.52" departSpeed="0.00" departDelay="2.00" arrival="168.00" arrivalLane="edgeE_I_1" arrivalPos="488.90" arrivalSpeed="24.23" duration="118.00" routeLength="1494.47" waitingTime="0.00" waitingCount="0" stopTime="0.00" timeLoss="9.88" rerouteNo="0" devices="tripinfo_straightW_56" vType="vehicleW_56" speedFactor="0.99" vaporized=""/>
    <tripinfo id="uturnW_23" depart="20.00" departLane="edgeW_O_2" departPos="5.41" departSpeed="0.00" departDelay="0.00" arrival="170.00" arrivalLane="edgeW_I_2" arrivalPos="988.90" arrivalSpeed="24.14" duration="150.00" routeLength="1977.06" waitingTime="0.00" waitingCount="0" stopTime="0.00" timeLoss="16.92" rerouteNo="0" devices="tripinfo_uturnW_23" vType="vehicleW_23" speedFactor="0.95" vaporized=""/>
    <tripinfo id="leftE_69" depart="67.00" departLane="edgeE_O_2" departPos="5.17" departSpeed="0.00" departDelay="2.00" arrival="171.00" arrivalLane="edgeS_I_1" arrivalPos="588.90" arrivalSpeed="12.05" duration="104.00" routeLength="1093.12" waitingTime="0.00" waitingCount="0" stopTime="0.00" timeLoss="12.82" rerouteNo="0" devices="tripinfo_leftE_69" vType="vehicleE_69" speedFactor="0.96" vaporized=""/>
    <tripinfo id="straightE_70" depart="67.00" departLane="edgeE_O_1" departPos="4.54" departSpeed="0.00" departDelay="0.00" arrival="171.00" arrivalLane="edgeW_I_1" arrivalPos="988.90" arrivalSpeed="25.57" duration="104.00" routeLength="1495.46" waitingTime="0.00" waitingCount="0" stopTime="0.00" timeLoss="31.37" rerouteNo="0" devices="tripinfo_straightE_70" vType="vehicleE_70" speedFactor="1.14" vaporized=""/>
    <tripinfo id="straightE_76" depart="73.00" departLane="edgeE_O_1" departPos="4.77" departSpeed="0.00" departDelay="2.00" arrival="171.00" arrivalLane="edgeW_I_2" arrivalPos="988.90" arrivalSpeed="24.69" duration="98.00" routeLength="1495.23" waitingTime="0.00" waitingCount="0" stopTime="0.00" timeLoss="29.04" rerouteNo="0" devices="tripinfo_straightE_76" vType="vehicleE_76" speedFactor="1.19" vaporized=""/>
    <tripinfo id="leftE_72" depart="70.00" departLane="edgeE_O_2" departPos="4.11" departSpeed="0.00" departDelay="1.00" arrival="174.00" arrivalLane="edgeS_I_2" arrivalPos="588.90" arrivalSpeed="12.18" duration="104.00" routeLength="1094.18" waitingTime="0.00" waitingCount="0" stopTime="0.00" timeLoss="13.41" rerouteNo="0" devices="tripinfo_leftE_72" vType="vehicleE_72" speedFactor="0.97" vaporized=""/>
    <tripinfo id="leftE_68" depart="64.00" departLane="edgeE_O_2" departPos="4.69" departSpeed="0.00" departDelay="0.00" arrival="175.00" arrivalLane="edgeS_I_1" arrivalPos="588.90" arrivalSpeed="11.30" duration="111.00" routeLength="1093.60" waitingTime="0.00" waitingCount="0" stopTime="0.00" timeLoss="9.46" rerouteNo="0" devices="tripinfo_leftE_68" vType="vehicleE_68" speedFactor="0.87" vaporized=""/>
    <tripinfo id="leftE_74" depart="70.00" departLane="edgeE_O_1" departPos="4.84" departSpeed="0.00" departDelay="0.00" arrival="176.00" arrivalLane="edgeS_I_1" arrivalPos="588.90" arrivalSpeed="12.86" duration="106.00" routeLength="1093.45" waitingTime="0.00" waitingCount="0" stopTime="0.00" timeLoss="19.65" rerouteNo="0" devices="tripinfo_leftE_74" vType="vehicleE_74" speedFactor="1.02" vaporized=""/>
    <tripinfo id="leftW_39" depart="28.00" departLane="edgeW_O_2" departPos="4.19" departSpeed="0.00" departDelay="0.00" arrival="177.00" arrivalLane="edgeN_I_1" arrivalPos="588.90" arrivalSpeed="12.50" duration="149.00" routeLength="1594.10" waitingTime="1.00" waitingCount="1" stopTime="0.00" timeLoss="15.97" rerouteNo="0" devices="tripinfo_leftW_39" vType="vehicleW_39" speedFactor="0.99" vaporized=""/>
    <tripinfo id="leftE_83" depart="83.00" departLane="edgeE_O_1" departPos="4.44" departSpeed="0.00" departDelay="0.00" arrival="178.00" arrivalLane="edgeS_I_2" arrivalPos="588.90" arrivalSpeed="14.51" duration="95.00" routeLength="1093.85" waitingTime="0.00" waitingCount="0" stopTime="0.00" timeLoss="13.11" rerouteNo="0" devices="tripinfo_leftE_83" vType="vehicleE_83" speedFactor="1.08" vaporized=""/>
    <tripinfo id="straightE_84" depart="86.00" departLane="edgeE_O_1" departPos="5.28" departSpeed="0.00" departDelay="2.00" arrival="179.00" arrivalLane="edgeW_I_1" arrivalPos="988.90" arrivalSpeed="23.14" duration="93.00" routeLength="1494.72" waitingTime="0.00" waitingCount="0" stopTime="0.00" timeLoss="7.69" rerouteNo="0" devices="tripinfo_straightE_84" vType="vehicleE_84" speedFactor="0.97" vaporized=""/>
    <tripinfo id="leftE_86" depart="88.00" departLane="edgeE_O_1" departPos="4.93" departSpeed="0.00" departDelay="3.00" arrival="187.00" arrivalLane="edgeS_I_1" arrivalPos="588.90" arrivalSpeed="12.70" duration="99.00" routeLength="1093.36" waitingTime="1.00" waitingCount="1" stopTime="0.00" timeLoss="10.07" rerouteNo="0" devices="tripinfo_leftE_86" vType="vehicleE_86" speedFactor="0.99" vaporized=""/>
    <tripinfo id="leftN_18" depart="16.00" departLane="edgeN_O_2" departPos="4.05" departSpeed="0.00" departDelay="0.00" arrival="199.00" arrivalLane="edgeE_I_1" arrivalPos="488.90" arrivalSpeed="27.82" duration="183.00" routeLength="1096.87" waitingTime="116.00" waitingCount="3" stopTime="0.00" timeLoss="137.05" rerouteNo="0" devices="tripinfo_leftN_18" vType="vehicleN_18" speedFactor="1.11" vaporized=""/>
    <tripinfo id="straightN_20" depart="19.00" departLane="edgeN_O_1" departPos="4.61" departSpeed="0.00" departDelay="0.00" arrival="208.00" arrivalLane="edgeS_I_1" arrivalPos="588.90" arrivalSpeed="15.73" duration="189.00" routeLength="1195.39" waitingTime="109.00" waitingCount="1" stopTime="0.00" timeLoss="125.82" rerouteNo="0" devices="tripinfo_straightN_20" vType="vehicleN_20" speedFactor="1.17" vaporized=""/>
    <tripinfo id="leftN_38" depart="30.00" departLane="edgeN_O_2" departPos="4.53" departSpeed="0.00" departDelay="2.00" arrival="208.00" arrivalLane="edgeE_I_1" arrivalPos="488.90" arrivalSpeed="24.82" duration="178.00" routeLength="1096.39" waitingTime="97.00" waitingCount="1" stopTime="0.00" timeLoss="127.28" rerouteNo="0" devices="tripinfo_leftN_38" vType="vehicleN_38" speedFactor="0.99" vaporized=""/>
    <tripinfo id="straightN_14" depart="12.00" departLane="edgeN_O_1" departPos="4.92" departSpeed="0.00" departDelay="0.00" arrival="212.00" arrivalLane="edgeS_I_1" arrivalPos="588.90" arrivalSpeed="13.37" duration="200.00" routeLength="1195.08" waitingTime="114.00" waitingCount="1" stopTime="0.00" timeLoss="127.85" rerouteNo="0" devices="tripinfo_straightN_14" vType="vehicleN_14" speedFactor="1.01" vaporized=""/>
    <tripinfo id="straightS_17" depart="14.00" departLane="edgeS_O_1" departPos="5.03" departSpeed="0.00" departDelay="0.00" arrival="214.00" arrivalLane="edgeN_I_1" arrivalPos="588.90" arrivalSpeed="12.65" duration="200.00" routeLength="1194.97" waitingTime="112.00" waitingCount="1" stopTime="0.00" timeLoss="125.50" rerouteNo="0" devices="tripinfo_straightS_17" vType="vehicleS_17" speedFactor="0.99" vaporized=""/>
    <tripinfo id="straightS_19" depart="16.00" departLane="edgeS_O_1" departPos="4.40" departSpeed="0.00" departDelay="0.00" arrival="214.00" arrivalLane="edgeN_I_2" arrivalPos="588.90" arrivalSpeed="13.14" duration="198.00" routeLength="1195.60" waitingTime="109.00" waitingCount="1" stopTime="0.00" timeLoss="122.45" rerouteNo="0" devices="tripinfo_straightS_19" vType="vehicleS_19" speedFactor="0.97" vaporized=""/>
    <tripinfo id="straightS_32" depart="29.00" departLane="edgeS_O_2" departPos="4.13" departSpeed="0.00" departDelay="5.00" arrival="216.00" arrivalLane="edgeN_I_1" arrivalPos="588.90" arrivalSpeed="12.97" duration="187.00" routeLength="1195.87" waitingTime="98.00" waitingCount="1" stopTime="0.00" timeLoss="116.24" rerouteNo="0" devices="tripinfo_straightS_32" vType="vehicleS_32" speedFactor="1.04" vaporized=""/>
    <tripinfo id="straightS_43" depart="34.00" departLane="edgeS_O_1" departPos="4.45" departSpeed="0.00" departDelay="0.00" arrival="216.00" arrivalLane="edgeN_I_2" arrivalPos="588.90" arrivalSpeed="13.29" duration="182.00" routeLength="1195.55" waitingTime="94.00" waitingCount="1" stopTime="0.00" timeLoss="110.72" rerouteNo="0" devices="tripinfo_straightS_43" vType="vehicleS_43" speedFactor="1.03" vaporized=""/>
    <tripinfo id="straightN_34" depart="26.00" departLane="edgeN_O_1" departPos="5.25" departSpeed="0.00" departDelay="0.00" arrival="218.00" arrivalLane="edgeS_I_1" arrivalPos="588.90" arrivalSpeed="12.78" duration="192.00" routeLength="1194.75" waitingTime="98.00" waitingCount="1" stopTime="0.00" timeLoss="115.24" rerouteNo="0" devices="tripinfo_straightN_34" vType="vehicleN_34" speedFactor="0.95" vaporized=""/>
    <tripinfo id="leftN_41" depart="32.00" departLane="edgeN_O_2" departPos="5.19" departSpeed="0.00" departDelay="1.00" arrival="218.00" arrivalLane="edgeE_I_1" arrivalPos="488.90" arrivalSpeed="23.41" duration="186.00" routeLength="1095.73" waitingTime="100.00" waitingCount="2" stopTime="0.00" timeLoss="132.88" rerouteNo="0" devices="tripinfo_leftN_41" vType="vehicleN_41" speedFactor="0.94" vaporized=""/>
    <tripinfo id="straightN_52" depart="44.00" departLane="edgeN_O_1" departPos="5.18" departSpeed="0.00" departDelay="1.00" arrival="220.00" arrivalLane="edgeS_I_2" arrivalPos="588.90" arrivalSpeed="14.69" duration="176.00" routeLength="1194.82" waitingTime="87.00" waitingCount="2" stopTime="0.00" timeLoss="108.37" rerouteNo="0" devices="tripinfo_straightN_52" vType="vehicleN_52" speedFactor="1.08" vaporized=""/>
    <tripinfo id="straightN_37" depart="29.00" departLane="edgeN_O_1" departPos="5.19" departSpeed="0.00" departDelay="2.00" arrival="221.00" arrivalLane="edgeS_I_1" arrivalPos="588.90" arrivalSpeed="11.61" duration="192.00" routeLength="1194.81" waitingTime="97.00" waitingCount="1" stopTime="0.00" timeLoss="114.83" rerouteNo="0" devices="tripinfo_straightN_37" vType="vehicleN_37" speedFactor="0.95" vaporized=""/>
    <tripinfo id="straightS_50" depart="41.00" departLane="edgeS_O_2" departPos="4.81" departSpeed="0.00" departDelay="0.00" arrival="222.00" arrivalLane="edgeN_I_2" arrivalPos="588.90" arrivalSpeed="13.45" duration="181.00" routeLength="1195.19" waitingTime="88.00" waitingCount="2" stopTime="0.00" timeLoss="107.37" rerouteNo="0" devices="tripinfo_straightS_50" vType="vehicleS_50" speedFactor="1.00" vaporized=""/>
    <tripinfo id="straightN_31" depart="26.00" departLane="edgeN_O_2" departPos="4.96" departSpeed="0.00" departDelay="2.00" arrival="223.00" arrivalLane="edgeS_I_1" arrivalPos="588.90" arrivalSpeed="12.21" duration="197.00" routeLength="1195.05" waitingTime="95.00" waitingCount="1" stopTime="0.00" timeLoss="120.67" rerouteNo="0" devices="tripinfo_straightN_31" vType="vehicleN_31" speedFactor="0.96" vaporized=""/>
    <tripinfo id="straightS_46" depart="36.00" departLane="edgeS_O_2" departPos="4.57" departSpeed="0.00" departDelay="0.00" arrival="223.00" arrivalLane="edgeN_I_1" arrivalPos="588.90" arrivalSpeed="11.72" duration="187.00" routeLength="1195.43" waitingTime="91.00" waitingCount="1" stopTime="0.00" timeLoss="107.06" rerouteNo="0" devices="tripinfo_straightS_46" vType="vehicleS_46" speedFactor="0.92" vaporized=""/>
    <tripinfo id="straightS_82" depart="82.00" departLane="edgeS_O_2" departPos="4.57" departSpeed="0.00" departDelay="0.00" arrival="224.00" arrivalLane="edgeN_I_2" arrivalPos="588.90" arrivalSpeed="12.86" duration="142.00" routeLength="1195.43" waitingTime="52.00" waitingCount="1" stopTime="0.00" timeLoss="71.31" rerouteNo="0" devices="tripinfo_straightS_82" vType="vehicleS_82" speedFactor="1.04" vaporized=""/>
    <tripinfo id="straightN_49" depart="41.00" departLane="edgeN_O_1" departPos="4.41" departSpeed="0.00" departDelay="0.00" arrival="226.00" arrivalLane="edgeS_I_1" arrivalPos="588.90" arrivalSpeed="12.11" duration="185.00" routeLength="1195.59" waitingTime="88.00" waitingCount="1" stopTime="0.00" timeLoss="104.67" rerouteNo="0" devices="tripinfo_straightN_49" vType="vehicleN_49" speedFactor="0.92" vaporized=""/>
    <tripinfo id="straightN_58" depart="55.00" departLane="edgeN_O_2" departPos="5.29" departSpeed="0.00" departDelay="0.00" arrival="227.00" arrivalLane="edgeS_I_1" arrivalPos="588.90" arrivalSpeed="13.71" duration="172.00" routeLength="1194.71" waitingTime="78.00" waitingCount="2" stopTime="0.00" timeLoss="106.37" rerouteNo="0" devices="tripinfo_straightN_58" vType="vehicleN_58" speedFactor="1.11" vaporized=""/>
    <tripinfo id="straightN_24" depart="21.00" departLane="edgeN_O_2" departPos="4.37" departSpeed="0.00" departDelay="0.00" arrival="228.00" arrivalLane="edgeS_I_2" arrivalPos="588.90" arrivalSpeed="12.73" duration="207.00" routeLength="1195.63" waitingTime="108.00" waitingCount="2" stopTime="0.00" timeLoss="129.61" rerouteNo="0" devices="tripinfo_straightN_24" vType="vehicleN_24" speedFactor="0.95" vaporized=""/>
    <tripinfo id="straightN_71" depart="68.00" departLane="edgeN_O_2" departPos="4.48" departSpeed="0.00" departDelay="0.00" arrival="229.00" arrivalLane="edgeS_I_1" arrivalPos="588.90" arrivalSpeed="13.68" duration="161.00" routeLength="1195.52" waitingTime="67.00" waitingCount="1" stopTime="0.00" timeLoss="88.72" rerouteNo="0" devices="tripinfo_straightN_71" vType="vehicleN_71" speedFactor="1.01" vaporized=""/>
    <tripinfo id="straightS_99" depart="104.00" departLane="edgeS_O_1" departPos="4.84" departSpeed="0.00" departDelay="0.00" arrival="229.00" arrivalLane="edgeN_I_2" arrivalPos="588.90" arrivalSpeed="13.25" duration="125.00" routeLength="1195.15" waitingTime="31.00" waitingCount="1" stopTime="0.00" timeLoss="52.73" rerouteNo="0" devices="tripinfo_straightS_99" vType="vehicleS_99" speedFactor="1.01" vaporized=""/>
    <tripinfo id="straightN_66" depart="66.00" departLane="edgeN_O_2" departPos="5.27" departSpeed="0.00" departDelay="3.00" arrival="231.00" arrivalLane="edgeS_I_1" arrivalPos="588.90" arrivalSpeed="13.45" duration="165.00" routeLength="1194.73" waitingTime="67.00" waitingCount="3" stopTime="0.00" timeLoss="96.13" rerouteNo="0" devices="tripinfo_straightN_66" vType="vehicleN_66" speedFactor="1.06" vaporized=""/>