<?xml version="1.0" encoding="UTF-8"?>

<!-- generated on 2021-10-23 04:06:19 by Eclipse SUMO sumo Version 1.10.0
<configuration xmlns:xsi="http://www.w3.org/2001/XMLSchema-instance" xsi:noNamespaceSchemaLocation="http://sumo.dlr.de/xsd/sumoConfiguration.xsd">

    <input>
        <net-file value="data6/cross.net.xml"/>
        <route-files value="data6/cross.rou.xml"/>
        <additional-files value="data6/cross.tls.xml"/>
    </input>

    <output>
        <tripinfo-output value="data6/tripinfo.xml"/>
        <tripinfo-output.write-unfinished value="true"/>
    </output>

    <time>
        <begin value="0"/>
        <step-length value="1"/>
    </time>

    <processing>
        <threads value="5"/>
        <time-to-teleport value="-1"/>
    </processing>

    <report>
        <verbose value="true"/>
        <no-warnings value="true"/>
        <no-step-log value="true"/>
    </report>

    <traci_server>
        <remote-port value="54648"/>
    </traci_server>

    <gui_only>
        <gui-settings-file value="data6/viewsettings.xml"/>
        <tracker-interval value="1"/>
    </gui_only>

</configuration>
-->

<tripinfos xmlns:xsi="http://www.w3.org/2001/XMLSchema-instance" xsi:noNamespaceSchemaLocation="http://sumo.dlr.de/xsd/tripinfo_file.xsd">
    <tripinfo id="straightS_0" depart="0.00" departLane="edgeS_O_2" departPos="4.31" departSpeed="0.00" departDelay="0.00" arrival="43.00" arrivalLane="edgeN_I_2" arrivalPos="485.70" arrivalSpeed="22.96" duration="43.00" routeLength="895.69" waitingTime="0.00" waitingCount="0" stopTime="0.00" timeLoss="5.53" rerouteNo="0" devices="tripinfo_straightS_0" vType="vehicleS_0" speedFactor="1.01" vaporized=""/>
    <tripinfo id="straightN_10" depart="6.00" departLane="edgeN_O_5" departPos="4.38" departSpeed="0.00" departDelay="0.00" arrival="48.00" arrivalLane="edgeS_I_5" arrivalPos="385.70" arrivalSpeed="23.54" duration="42.00" routeLength="895.62" waitingTime="0.00" waitingCount="0" stopTime="0.00" timeLoss="6.08" rerouteNo="0" devices="tripinfo_straightN_10" vType="vehicleN_10" speedFactor="1.02" vaporized=""/>
    <tripinfo id="straightN_4" depart="3.00" departLane="edgeN_O_3" departPos="5.41" departSpeed="0.00" departDelay="0.00" arrival="53.00" arrivalLane="edgeS_I_2" arrivalPos="385.70" arrivalSpeed="18.46" duration="50.00" routeLength="894.59" waitingTime="0.00" waitingCount="0" stopTime="0.00" timeLoss="5.64" rerouteNo="0" devices="tripinfo_straightN_4" vType="vehicleN_4" speedFactor="0.84" vaporized=""/>
    <tripinfo id="leftE_1" depart="0.00" departLane="edgeE_O_3" departPos="4.33" departSpeed="0.00" departDelay="0.00" arrival="70.00" arrivalLane="edgeS_I_5" arrivalPos="385.70" arrivalSpeed="23.50" duration="70.00" routeLength="1094.02" waitingTime="0.00" waitingCount="0" stopTime="0.00" timeLoss="7.23" rerouteNo="0" devices="tripinfo_leftE_1" vType="vehicleE_1" speedFactor="1.07" vaporized=""/>
    <tripinfo id="leftW_8" depart="5.00" departLane="edgeW_O_3" departPos="4.48" departSpeed="0.00" departDelay="0.00" arrival="73.00" arrivalLane="edgeN_I_5" arrivalPos="485.70" arrivalSpeed="22.19" duration="68.00" routeLength="993.87" waitingTime="0.00" waitingCount="0" stopTime="0.00" timeLoss="8.76" rerouteNo="0" devices="tripinfo_leftW_8" vType="vehicleW_8" speedFactor="0.97" vaporized=""/>
    <tripinfo id="leftW_31" depart="19.00" departLane="edgeW_O_3" departPos="5.10" departSpeed="0.00" departDelay="0.00" arrival="78.00" arrivalLane="edgeN_I_5" arrivalPos="485.70" arrivalSpeed="24.67" duration="59.00" routeLength="993.25" waitingTime="0.00" waitingCount="0" stopTime="0.00" timeLoss="5.80" rerouteNo="0" devices="tripinfo_leftW_31" vType="vehicleW_31" speedFactor="1.07" vaporized=""/>
    <tripinfo id="rightW_3" depart="1.00" departLane="edgeW_O_1" departPos="4.52" departSpeed="0.00" departDelay="0.00" arrival="84.00" arrivalLane="edgeS_I_1" arrivalPos="385.70" arrivalSpeed="24.32" duration="83.00" routeLength="867.44" waitingTime="19.00" waitingCount="1" stopTime="0.00" timeLoss="33.24" rerouteNo="0" devices="tripinfo_rightW_3" vType="vehicleW_3" speedFactor="1.04" vaporized=""/>
    <tripinfo id="straightE_11" depart="7.00" departLane="edgeE_O_2" departPos="5.28" departSpeed="0.00" departDelay="1.00" arrival="93.00" arrivalLane="edgeW_I_2" arrivalPos="476.10" arrivalSpeed="17.18" duration="86.00" routeLength="1194.72" waitingTime="3.00" waitingCount="1" stopTime="0.00" timeLoss="15.34" rerouteNo="0" devices="tripinfo_straightE_11" vType="vehicleE_11" speedFactor="1.14" vaporized=""/>
    <tripinfo id="straightE_16" depart="10.00" departLane="edgeE_O_2" departPos="5.69" departSpeed="0.00" departDelay="0.00" arrival="95.00" arrivalLane="edgeW_I_2" arrivalPos="476.10" arrivalSpeed="16.72" duration="85.00" routeLength="1194.30" waitingTime="0.00" waitingCount="0" stopTime="0.00" timeLoss="13.50" rerouteNo="0" devices="tripinfo_straightE_16" vType="vehicleE_16" speedFactor="1.12" vaporized=""/>
    <tripinfo id="rightE_49" depart="29.00" departLane="edgeE_O_1" departPos="4.88" departSpeed="0.00" departDelay="0.00" arrival="98.00" arrivalLane="edgeN_I_2" arrivalPos="485.70" arrivalSpeed="25.38" duration="69.00" routeLength="1167.08" waitingTime="0.00" waitingCount="0" stopTime="0.00" timeLoss="7.80" rerouteNo="0" devices="tripinfo_rightE_49" vType="vehicleE_49" speedFactor="1.16" vaporized=""/>
    <tripinfo id="rightE_14" depart="9.00" departLane="edgeE_O_1" departPos="5.49" departSpeed="0.00" departDelay="0.00" arrival="99.00" arrivalLane="edgeN_I_1" arrivalPos="485.70" arrivalSpeed="19.65" duration="90.00" routeLength="1166.47" waitingTime="0.00" waitingCount="0" stopTime="0.00" timeLoss="10.07" rerouteNo="0" devices="tripinfo_rightE_14" vType="vehicleE_14" speedFactor="0.88" vaporized=""/>
    <tripinfo id="rightW_43" depart="26.00" departLane="edgeW_O_1" departPos="5.36" departSpeed="0.00" departDelay="0.00" arrival="102.00" arrivalLane="edgeS_I_1" arrivalPos="385.70" arrivalSpeed="16.59" duration="76.00" routeLength="866.60" waitingTime="0.00" waitingCount="0" stopTime="0.00" timeLoss="9.01" rerouteNo="0" devices="tripinfo_rightW_43" vType="vehicleW_43" speedFactor="0.77" vaporized=""/>
    <tripinfo id="straightE_9" depart="5.00" departLane="edgeE_O_2" departPos="5.51" departSpeed="0.00" departDelay="0.00" arrival="104.00" arrivalLane="edgeW_I_1" arrivalPos="476.10" arrivalSpeed="14.16" duration="99.00" routeLength="1194.49" waitingTime="0.00" waitingCount="0" stopTime="0.00" timeLoss="10.74" rerouteNo="0" devices="tripinfo_straightE_9" vType="vehicleE_9" speedFactor="0.91" vaporized=""/>
    <tripinfo id="straightE_21" depart="14.00" departLane="edgeE_O_2" departPos="4.88" departSpeed="0.00" departDelay="0.00" arrival="104.00" arrivalLane="edgeW_I_2" arrivalPos="476.10" arrivalSpeed="15.36" duration="90.00" routeLength="1195.12" waitingTime="0.00" waitingCount="0" stopTime="0.00" timeLoss="8.46" rerouteNo="0" devices="tripinfo_straightE_21" vType="vehicleE_21" speedFactor="0.98" vaporized=""/>
    <tripinfo id="straightW_17" depart="11.00" departLane="edgeW_O_2" departPos="4.03" departSpeed="0.00" departDelay="0.00" arrival="113.00" arrivalLane="edgeE_I_3" arrivalPos="676.10" arrivalSpeed="16.73" duration="102.00" routeLength="1195.97" waitingTime="9.00" waitingCount="1" stopTime="0.00" timeLoss="31.50" rerouteNo="0" devices="tripinfo_straightW_17" vType="vehicleW_17" speedFactor="1.12" vaporized=""/>
    <tripinfo id="straightE_44" depart="26.00" departLane="edgeE_O_2" departPos="4.60" departSpeed="0.00" departDelay="0.00" arrival="113.00" arrivalLane="edgeW_I_3" arrivalPos="476.10" arrivalSpeed="18.42" duration="87.00" routeLength="1195.40" waitingTime="0.00" waitingCount="0" stopTime="0.00" timeLoss="15.73" rerouteNo="0" devices="tripinfo_straightE_44" vType="vehicleE_44" speedFactor="1.13" vaporized=""/>
    <tripinfo id="straightW_7" depart="6.00" departLane="edgeW_O_2" departPos="4.20" departSpeed="0.00" departDelay="2.00" arrival="115.00" arrivalLane="edgeE_I_1" arrivalPos="676.10" arrivalSpeed="15.49" duration="109.00" routeLength="1195.80" waitingTime="10.00" waitingCount="1" stopTime="0.00" timeLoss="27.73" rerouteNo="0" devices="tripinfo_straightW_7" vType="vehicleW_7" speedFactor="0.97" vaporized=""/>
    <tripinfo id="straightE_32" depart="20.00" departLane="edgeE_O_2" departPos="4.34" departSpeed="0.00" departDelay="1.00" arrival="116.00" arrivalLane="edgeW_I_2" arrivalPos="476.10" arrivalSpeed="15.22" duration="96.00" routeLength="1195.66" waitingTime="0.00" waitingCount="0" stopTime="0.00" timeLoss="10.93" rerouteNo="0" devices="tripinfo_straightE_32" vType="vehicleE_32" speedFactor="0.94" vaporized=""/>
    <tripinfo id="straightE_26" depart="17.00" departLane="edgeE_O_2" departPos="4.29" departSpeed="0.00" departDelay="0.00" arrival="117.00" arrivalLane="edgeW_I_1" arrivalPos="476.10" arrivalSpeed="12.97" duration="100.00" routeLength="1195.71" waitingTime="0.00" waitingCount="0" stopTime="0.00" timeLoss="7.57" rerouteNo="0" devices="tripinfo_straightE_26" vType="vehicleE_26" speedFactor="0.87" vaporized=""/>
    <tripinfo id="straightW_23" depart="16.00" departLane="edgeW_O_2" departPos="4.52" departSpeed="0.00" departDelay="0.00" arrival="118.00" arrivalLane="edgeE_I_2" arrivalPos="676.10" arrivalSpeed="16.03" duration="102.00" routeLength="1195.48" waitingTime="7.00" waitingCount="1" stopTime="0.00" timeLoss="29.99" rerouteNo="0" devices="tripinfo_straightW_23" vType="vehicleW_23" speedFactor="1.08" vaporized=""/>
    <tripinfo id="uturnW_73" depart="46.00" departLane="edgeW_O_3" departPos="5.33" departSpeed="0.00" departDelay="0.00" arrival="118.00" arrivalLane="edgeW_I_3" arrivalPos="476.10" arrivalSpeed="17.48" duration="72.00" routeLength="951.55" waitingTime="2.00" waitingCount="1" stopTime="0.00" timeLoss="15.10" rerouteNo="0" devices="tripinfo_uturnW_73" vType="vehicleW_73" speedFactor="1.14" vaporized=""/>
    <tripinfo id="straightW_5" depart="3.00" departLane="edgeW_O_2" departPos="4.43" departSpeed="0.00" departDelay="0.00" arrival="119.00" arrivalLane="edgeE_I_1" arrivalPos="676.10" arrivalSpeed="13.23" duration="116.00" routeLength="1195.57" waitingTime="11.00" waitingCount="1" stopTime="0.00" timeLoss="23.04" rerouteNo="0" devices="tripinfo_straightW_5" vType="vehicleW_5" speedFactor="0.84" vaporized=""/>
    <tripinfo id="straightE_54" depart="32.00" departLane="edgeE_O_2" departPos="5.54" departSpeed="0.00" departDelay="1.00" arrival="119.00" arrivalLane="edgeW_I_2" arrivalPos="476.10" arrivalSpeed="15.90" duration="87.00" routeLength="1194.46" waitingTime="0.00" waitingCount="0" stopTime="0.00" timeLoss="9.78" rerouteNo="0" devices="tripinfo_straightE_54" vType="vehicleE_54" speedFactor="1.04" vaporized=""/>
    <tripinfo id="straightE_63" depart="40.00" departLane="edgeE_O_2" departPos="5.52" departSpeed="0.00" departDelay="0.00" arrival="120.00" arrivalLane="edgeW_I_2" arrivalPos="476.10" arrivalSpeed="18.93" duration="80.00" routeLength="1194.47" waitingTime="0.00" waitingCount="0" stopTime="0.00" timeLoss="12.24" rerouteNo="0" devices="tripinfo_straightE_63" vType="vehicleE_63" speedFactor="1.18" vaporized=""/>
    <tripinfo id="straightW_12" depart="9.00" departLane="edgeW_O_2" departPos="5.71" departSpeed="0.00" departDelay="2.00" arrival="121.00" arrivalLane="edgeE_I_1" arrivalPos="676.10" arrivalSpeed="13.44" duration="112.00" routeLength="1194.29" waitingTime="8.00" waitingCount="1" stopTime="0.00" timeLoss="26.29" rerouteNo="0" devices="tripinfo_straightW_12" vType="vehicleW_12" speedFactor="0.91" vaporized=""/>
    <tripinfo id="straightW_29" depart="18.00" departLane="edgeW_O_2" departPos="4.82" departSpeed="0.00" departDelay="0.00" arrival="122.00" arrivalLane="edgeE_I_2" arrivalPos="676.10" arrivalSpeed="16.41" duration="104.00" routeLength="1195.18" waitingTime="7.00" waitingCount="1" stopTime="0.00" timeLoss="26.13" rerouteNo="0" devices="tripinfo_straightW_29" vType="vehicleW_29" speedFactor="1.00" vaporized=""/>
    <tripinfo id="rightW_103" depart="66.00" departLane="edgeW_O_1" departPos="4.44" departSpeed="0.00" departDelay="0.00" arrival="122.00" arrivalLane="edgeS_I_1" arrivalPos="385.70" arrivalSpeed="24.04" duration="56.00" routeLength="867.52" waitingTime="0.00" waitingCount="0" stopTime="0.00" timeLoss="8.33" rerouteNo="0" devices="tripinfo_rightW_103" vType="vehicleW_103" speedFactor="1.10" vaporized=""/>
    <tripinfo id="straightW_39" depart="23.00" departLane="edgeW_O_2" departPos="5.19" departSpeed="0.00" departDelay="0.00" arrival="125.00" arrivalLane="edgeE_I_2" arrivalPos="676.10" arrivalSpeed="16.13" duration="102.00" routeLength="1194.81" waitingTime="5.00" waitingCount="1" stopTime="0.00" timeLoss="24.09" rerouteNo="0" devices="tripinfo_straightW_39" vType="vehicleW_39" speedFactor="1.00" vaporized=""/>
    <tripinfo id="straightW_34" depart="20.00" departLane="edgeW_O_2" departPos="4.82" departSpeed="0.00" departDelay="0.00" arrival="126.00" arrivalLane="edgeE_I_1" arrivalPos="676.10" arrivalSpeed="14.46" duration="106.00" routeLength="1195.18" waitingTime="6.00" waitingCount="1" stopTime="0.00" timeLoss="21.61" rerouteNo="0" devices="tripinfo_straightW_34" vType="vehicleW_34" speedFactor="0.93" vaporized=""/>
    <tripinfo id="straightW_40" depart="26.00" departLane="edgeW_O_2" departPos="4.47" departSpeed="0.00" departDelay="2.00" arrival="128.00" arrivalLane="edgeE_I_1" arrivalPos="676.10" arrivalSpeed="15.62" duration="102.00" routeLength="1195.53" waitingTime="4.00" waitingCount="1" stopTime="0.00" timeLoss="22.05" rerouteNo="0" devices="tripinfo_straightW_40" vType="vehicleW_40" speedFactor="0.98" vaporized=""/>
    <tripinfo id="straightW_45" depart="29.00" departLane="edgeW_O_2" departPos="4.32" departSpeed="0.00" departDelay="2.00" arrival="128.00" arrivalLane="edgeE_I_2" arrivalPos="676.10" arrivalSpeed="16.85" duration="99.00" routeLength="1195.68" waitingTime="2.00" waitingCount="1" stopTime="0.00" timeLoss="24.00" rerouteNo="0" devices="tripinfo_straightW_45" vType="vehicleW_45" speedFactor="1.05" vaporized=""/>
    <tripinfo id="leftE_46" depart="27.00" departLane="edgeE_O_3" departPos="5.31" departSpeed="0.00" departDelay="0.00" arrival="129.00" arrivalLane="edgeS_I_5" arrivalPos="385.70" arrivalSpeed="24.20" duration="102.00" routeLength="1093.04" waitingTime="27.00" waitingCount="1" stopTime="0.00" timeLoss="39.39" rerouteNo="0" devices="tripinfo_leftE_46" vType="vehicleE_46" speedFactor="1.08" vaporized=""/>
    <tripinfo id="straightW_48" depart="32.00" departLane="edgeW_O_2" departPos="5.23" departSpeed="0.00" departDelay="4.00" arrival="130.00" arrivalLane="edgeE_I_1" arrivalPos="676.10" arrivalSpeed="16.77" duration="98.00" routeLength="1194.77" waitingTime="2.00" waitingCount="1" stopTime="0.00" timeLoss="23.16" rerouteNo="0" devices="tripinfo_straightW_48" vType="vehicleW_48" speedFactor="1.05" vaporized=""/>
    <tripinfo id="straightW_58" depart="41.00" departLane="edgeW_O_2" departPos="5.17" departSpeed="0.00" departDelay="7.00" arrival="130.00" arrivalLane="edgeE_I_2" arrivalPos="676.10" arrivalSpeed="18.50" duration="89.00" routeLength="1194.83" waitingTime="0.00" waitingCount="0" stopTime="0.00" timeLoss="21.64" rerouteNo="0" devices="tripinfo_straightW_58" vType="vehicleW_58" speedFactor="1.16" vaporized=""/>
    <tripinfo id="straightE_70" depart="44.00" departLane="edgeE_O_2" departPos="5.01" departSpeed="0.00" departDelay="0.00" arrival="132.00" arrivalLane="edgeW_I_1" arrivalPos="476.10" arrivalSpeed="15.63" duration="88.00" routeLength="1194.99" waitingTime="0.00" waitingCount="0" stopTime="0.00" timeLoss="12.18" rerouteNo="0" devices="tripinfo_straightE_70" vType="vehicleE_70" speedFactor="1.06" vaporized=""/>
    <tripinfo id="straightW_51" depart="35.00" departLane="edgeW_O_2" departPos="4.65" departSpeed="0.00" departDelay="5.00" arrival="133.00" arrivalLane="edgeE_I_1" arrivalPos="676.10" arrivalSpeed="16.37" duration="98.00" routeLength="1195.35" waitingTime="0.00" waitingCount="0" stopTime="0.00" timeLoss="20.30" rerouteNo="0" devices="tripinfo_straightW_51" vType="vehicleW_51" speedFactor="1.01" vaporized=""/>
    <tripinfo id="straightE_72" depart="47.00" departLane="edgeE_O_2" departPos="5.41" departSpeed="0.00" departDelay="2.00" arrival="133.00" arrivalLane="edgeW_I_3" arrivalPos="476.10" arrivalSpeed="16.60" duration="86.00" routeLength="1194.59" waitingTime="0.00" waitingCount="0" stopTime="0.00" timeLoss="12.27" rerouteNo="0" devices="tripinfo_straightE_72" vType="vehicleE_72" speedFactor="1.09" vaporized=""/>
    <tripinfo id="straightW_66" depart="44.00" departLane="edgeW_O_2" departPos="5.29" departSpeed="0.00" departDelay="1.00" arrival="135.00" arrivalLane="edgeE_I_2" arrivalPos="676.10" arrivalSpeed="17.84" duration="91.00" routeLength="1194.71" waitingTime="0.00" waitingCount="0" stopTime="0.00" timeLoss="19.28" rerouteNo="0" devices="tripinfo_straightW_66" vType="vehicleW_66" speedFactor="1.09" vaporized=""/>
    <tripinfo id="straightE_52" depart="30.00" departLane="edgeE_O_2" departPos="4.59" departSpeed="0.00" departDelay="0.00" arrival="137.00" arrivalLane="edgeW_I_1" arrivalPos="476.10" arrivalSpeed="12.84" duration="107.00" routeLength="1195.40" waitingTime="0.00" waitingCount="0" stopTime="0.00" timeLoss="9.49" rerouteNo="0" devices="tripinfo_straightE_52" vType="vehicleE_52" speedFactor="0.82" vaporized=""/>
    <tripinfo id="leftE_67" depart="43.00" departLane="edgeE_O_3" departPos="3.94" departSpeed="0.00" departDelay="0.00" arrival="138.00" arrivalLane="edgeS_I_5" arrivalPos="385.70" arrivalSpeed="26.14" duration="95.00" routeLength="1094.41" waitingTime="23.00" waitingCount="2" stopTime="0.00" timeLoss="36.88" rerouteNo="0" devices="tripinfo_leftE_67" vType="vehicleE_67" speedFactor="1.15" vaporized=""/>
    <tripinfo id="straightE_77" depart="49.00" departLane="edgeE_O_2" departPos="4.50" departSpeed="0.00" departDelay="0.00" arrival="138.00" arrivalLane="edgeW_I_2" arrivalPos="476.10" arrivalSpeed="15.15" duration="89.00" routeLength="1195.50" waitingTime="0.00" waitingCount="0" stopTime="0.00" timeLoss="7.60" rerouteNo="0" devices="tripinfo_straightE_77" vType="vehicleE_77" speedFactor="0.99" vaporized=""/>
    <tripinfo id="straightW_82" depart="51.00" departLane="edgeW_O_2" departPos="4.26" departSpeed="0.00" departDelay="0.00" arrival="138.00" arrivalLane="edgeE_I_1" arrivalPos="676.10" arrivalSpeed="16.36" duration="87.00" routeLength="1195.74" waitingTime="0.00" waitingCount="0" stopTime="0.00" timeLoss="11.42" rerouteNo="0" devices="tripinfo_straightW_82" vType="vehicleW_82" speedFactor="1.03" vaporized=""/>
    <tripinfo id="straightE_83" depart="55.00" departLane="edgeE_O_2" departPos="4.41" departSpeed="0.00" departDelay="4.00" arrival="140.00" arrivalLane="edgeW_I_2" arrivalPos="476.10" arrivalSpeed="15.98" duration="85.00" routeLength="1195.59" waitingTime="0.00" waitingCount="0" stopTime="0.00" timeLoss="7.24" rerouteNo="0" devices="tripinfo_straightE_83" vType="vehicleE_83" speedFactor="1.03" vaporized=""/>
    <tripinfo id="straightW_84" depart="54.00" departLane="edgeW_O_2" departPos="4.46" departSpeed="0.00" departDelay="2.00" arrival="143.00" arrivalLane="edgeE_I_1" arrivalPos="676.10" arrivalSpeed="15.69" duration="89.00" routeLength="1195.55" waitingTime="0.00" waitingCount="0" stopTime="0.00" timeLoss="10.15" rerouteNo="0" devices="tripinfo_straightW_84" vType="vehicleW_84" speedFactor="1.00" vaporized=""/>
    <tripinfo id="leftW_90" depart="56.00" departLane="edgeW_O_3" departPos="4.34" departSpeed="0.00" departDelay="0.00" arrival="144.00" arrivalLane="edgeN_I_5" arrivalPos="485.70" arrivalSpeed="23.77" duration="88.00" routeLength="994.01" waitingTime="20.00" waitingCount="1" stopTime="0.00" timeLoss="32.56" rerouteNo="0" devices="tripinfo_leftW_90" vType="vehicleW_90" speedFactor="1.04" vaporized=""/>
    <tripinfo id="straightW_91" depart="57.00" departLane="edgeW_O_2" departPos="5.18" departSpeed="0.00" departDelay="0.00" arrival="144.00" arrivalLane="edgeE_I_2" arrivalPos="676.10" arrivalSpeed="15.20" duration="87.00" routeLength="1194.82" waitingTime="0.00" waitingCount="0" stopTime="0.00" timeLoss="8.24" rerouteNo="0" devices="tripinfo_straightW_91" vType="vehicleW_91" speedFactor="0.99" vaporized=""/>
    <tripinfo id="rightE_99" depart="64.00" departLane="edgeE_O_1" departPos="4.74" departSpeed="0.00" departDelay="0.00" arrival="148.00" arrivalLane="edgeN_I_1" arrivalPos="485.70" arrivalSpeed="23.62" duration="84.00" routeLength="1167.22" waitingTime="0.00" waitingCount="0" stopTime="0.00" timeLoss="17.44" rerouteNo="0" devices="tripinfo_rightE_99" vType="vehicleE_99" speedFactor="1.05" vaporized=""/>
    <tripinfo id="straightE_80" depart="52.00" departLane="edgeE_O_2" departPos="4.64" departSpeed="0.00" departDelay="2.00" arrival="149.00" arrivalLane="edgeW_I_1" arrivalPos="476.10" arrivalSpeed="13.77" duration="97.00" routeLength="1195.36" waitingTime="0.00" waitingCount="0" stopTime="0.00" timeLoss="8.10" rerouteNo="0" devices="tripinfo_straightE_80" vType="vehicleE_80" speedFactor="0.90" vaporized=""/>
    <tripinfo id="straightE_88" depart="58.00" departLane="edgeE_O_2" departPos="4.72" departSpeed="0.00" departDelay="3.00" arrival="149.00" arrivalLane="edgeW_I_2" arrivalPos="476.10" arrivalSpeed="15.90" duration="91.00" routeLength="1195.28" waitingTime="0.00" waitingCount="0" stopTime="0.00" timeLoss="8.53" rerouteNo="0" devices="tripinfo_straightE_88" vType="vehicleE_88" speedFactor="0.97" vaporized=""/>
    <tripinfo id="straightW_56" depart="38.00" departLane="edgeW_O_2" departPos="3.95" departSpeed="0.00" departDelay="6.00" arrival="151.00" arrivalLane="edgeE_I_1" arrivalPos="676.10" arrivalSpeed="11.60" duration="113.00" routeLength="1196.05" waitingTime="0.00" waitingCount="0" stopTime="0.00" timeLoss="9.51" rerouteNo="0" devices="tripinfo_straightW_56" vType="vehicleW_56" speedFactor="0.76" vaporized=""/>
    <tripinfo id="straightE_93" depart="61.00" departLane="edgeE_O_2" departPos="4.40" departSpeed="0.00" departDelay="1.00" arrival="151.00" arrivalLane="edgeW_I_2" arrivalPos="476.10" arrivalSpeed="16.44" duration="90.00" routeLength="1195.60" waitingTime="0.00" waitingCount="0" stopTime="0.00" timeLoss="13.90" rerouteNo="0" devices="tripinfo_straightE_93" vType="vehicleE_93" speedFactor="1.06" vaporized=""/>
    <tripinfo id="straightW_100" depart="65.00" departLane="edgeW_O_2" departPos="5.59" departSpeed="0.00" departDelay="0.00" arrival="151.00" arrivalLane="edgeE_I_2" arrivalPos="676.10" arrivalSpeed="14.96" duration="86.00" routeLength="1194.41" waitingTime="0.00" waitingCount="0" stopTime="0.00" timeLoss="6.45" rerouteNo="0" devices="tripinfo_straightW_100" vType="vehicleW_100" speedFactor="0.98" vaporized=""/>
    <tripinfo id="rightE_125" depart="81.00" departLane="edgeE_O_1" departPos="4.16" departSpeed="0.00" departDelay="0.00" arrival="153.00" arrivalLane="edgeN_I_1" arrivalPos="485.70" arrivalSpeed="24.89" duration="72.00" routeLength="1167.80" waitingTime="0.00" waitingCount="0" stopTime="0.00" timeLoss="9.04" rerouteNo="0" devices="tripinfo_rightE_125" vType="vehicleE_125" speedFactor="1.12" vaporized=""/>
    <tripinfo id="straightE_101" depart="69.00" departLane="edgeE_O_2" departPos="5.36" departSpeed="0.00" departDelay="4.00" arrival="159.00" arrivalLane="edgeW_I_3" arrivalPos="476.10" arrivalSpeed="18.86" duration="90.00" routeLength="1194.64" waitingTime="0.00" waitingCount="0" stopTime="0.00" timeLoss="24.73" rerouteNo="0" devices="tripinfo_straightE_101" vType="vehicleE_101" speedFactor="1.23" vaporized=""/>
    <tripinfo id="straightW_111" depart="71.00" departLane="edgeW_O_2" departPos="4.39" departSpeed="0.00" departDelay="0.00" arrival="159.00" arrivalLane="edgeE_I_1" arrivalPos="676.10" arrivalSpeed="17.13" duration="88.00" routeLength="1195.61" waitingTime="0.00" waitingCount="0" stopTime="0.00" timeLoss="16.36" rerouteNo="0" devices="tripinfo_straightW_111" vType="vehicleW_111" speedFactor="1.09" vaporized=""/>
    <tripinfo id="straightE_108" depart="74.00" departLane="edgeE_O_2" departPos="5.46" departSpeed="0.00" departDelay="6.00" arrival="164.00" arrivalLane="edgeW_I_2" arrivalPos="476.10" arrivalSpeed="17.03" duration="90.00" routeLength="1194.54" waitingTime="0.00" waitingCount="0" stopTime="0.00" timeLoss="13.49" rerouteNo="0" devices="tripinfo_straightE_108" vType="vehicleE_108" speedFactor="1.04" vaporized=""/>
    <tripinfo id="straightE_94" depart="64.00" departLane="edgeE_O_2" departPos="5.13" departSpeed="0.00" departDelay="3.00" arrival="167.00" arrivalLane="edgeW_I_1" arrivalPos="476.10" arrivalSpeed="13.53" duration="103.00" routeLength="1194.87" waitingTime="0.00" waitingCount="0" stopTime="0.00" timeLoss="9.75" rerouteNo="0" devices="tripinfo_straightE_94" vType="vehicleE_94" speedFactor="0.86" vaporized=""/>
    <tripinfo id="straightW_105" depart="68.00" departLane="edgeW_O_2" departPos="4.66" departSpeed="0.00" departDelay="1.00" arrival="167.00" arrivalLane="edgeE_I_1" arrivalPos="676.10" arrivalSpeed="13.47" duration="99.00" routeLength="1195.34" waitingTime="0.00" waitingCount="0" stopTime="0.00" timeLoss="9.35" rerouteNo="0" devices="tripinfo_straightW_105" vType="vehicleW_105" speedFactor="0.87" vaporized=""/>
    <tripinfo id="straightW_117" depart="74.00" departLane="edgeW_O_2" departPos="4.74" departSpeed="0.00" departDelay="0.00" arrival="168.00" arrivalLane="edgeE_I_1" arrivalPos="676.10" arrivalSpeed="14.85" duration="94.00" routeLength="1195.26" waitingTime="0.00" waitingCount="0" stopTime="0.00" timeLoss="8.35" rerouteNo="0" devices="tripinfo_straightW_117" vType="vehicleW_117" speedFactor="0.92" vaporized=""/>
    <tripinfo id="leftW_95" depart="62.00" departLane="edgeW_O_3" departPos="5.28" departSpeed="0.00" departDelay="0.00" arrival="172.00" arrivalLane="edgeN_I_5" arrivalPos="485.70" arrivalSpeed="21.48" duration="110.00" routeLength="993.07" waitingTime="36.00" waitingCount="2" stopTime="0.00" timeLoss="49.27" rerouteNo="0" devices="tripinfo_leftW_95" vType="vehicleW_95" speedFactor="0.95" vaporized=""/>
    <tripinfo id="straightE_106" depart="72.00" departLane="edgeE_O_2" departPos="4.97" departSpeed="0.00" departDelay="5.00" arrival="172.00" arrivalLane="edgeW_I_2" arrivalPos="476.10" arrivalSpeed="17.50" duration="100.00" routeLength="1195.03" waitingTime="0.00" waitingCount="0" stopTime="0.00" timeLoss="24.83" rerouteNo="0" devices="tripinfo_straightE_106" vType="vehicleE_106" speedFactor="1.07" vaporized=""/>
    <tripinfo id="straightE_109" depart="77.00" departLane="edgeE_O_2" departPos="4.98" departSpeed="0.00" departDelay="7.00" arrival="174.00" arrivalLane="edgeW_I_2" arrivalPos="476.10" arrivalSpeed="16.19" duration="97.00" routeLength="1195.02" waitingTime="0.00" waitingCount="0" stopTime="0.00" timeLoss="19.55" rerouteNo="0" devices="tripinfo_straightE_109" vType="vehicleE_109" speedFactor="1.04" vaporized=""/>
    <tripinfo id="straightW_121" depart="79.00" departLane="edgeW_O_2" departPos="4.81" departSpeed="0.00" departDelay="2.00" arrival="175.00" arrivalLane="edgeE_I_1" arrivalPos="676.10" arrivalSpeed="15.02" duration="96.00" routeLength="1195.19" waitingTime="0.00" waitingCount="0" stopTime="0.00" timeLoss="17.26" rerouteNo="0" devices="tripinfo_straightW_121" vType="vehicleW_121" speedFactor="1.00" vaporized=""/>
    <tripinfo id="straightE_96" depart="66.00" departLane="edgeE_O_2" departPos="5.06" departSpeed="0.00" departDelay="4.00" arrival="178.00" arrivalLane="edgeW_I_1" arrivalPos="476.10" arrivalSpeed="11.45" duration="112.00" routeLength="1194.94" waitingTime="0.00" waitingCount="0" stopTime="0.00" timeLoss="10.48" rerouteNo="0" devices="tripinfo_straightE_96" vType="vehicleE_96" speedFactor="0.79" vaporized=""/>
    <tripinfo id="straightW_135" depart="92.00" departLane="edgeW_O_2" departPos="4.22" departSpeed="0.00" departDelay="0.00" arrival="178.00" arrivalLane="edgeE_I_2" arrivalPos="676.10" arrivalSpeed="18.41" duration="86.00" routeLength="1195.78" waitingTime="0.00" waitingCount="0" stopTime="0.00" timeLoss="17.94" rerouteNo="0" devices="tripinfo_straightW_135" vType="vehicleW_135" speedFactor="1.16" vaporized=""/>
    <tripinfo id="straightE_112" depart="80.00" departLane="edgeE_O_2" departPos="5.28" departSpeed="0.00" departDelay="8.00" arrival="179.00" arrivalLane="edgeW_I_2" arrivalPos="476.10" arrivalSpeed="15.57" duration="99.00" routeLength="1194.72" waitingTime="0.00" waitingCount="0" stopTime="0.00" timeLoss="14.54" rerouteNo="0" devices="tripinfo_straightE_112" vType="vehicleE_112" speedFactor="0.95" vaporized=""/>
    <tripinfo id="uturnS_25" depart="17.00" departLane="edgeS_O_6" departPos="5.42" departSpeed="0.00" departDelay="0.00" arrival="180.00" arrivalLane="edgeS_I_6" arrivalPos="385.70" arrivalSpeed="23.42" duration="163.00" routeLength="770.66" waitingTime="118.00" waitingCount="1" stopTime="0.00" timeLoss="130.55" rerouteNo="0" devices="tripinfo_uturnS_25" vType="vehicleS_25" speedFactor="1.01" vaporized=""/>
    <tripinfo id="uturnS_47" depart="28.00" departLane="edgeS_O_6" departPos="4.23" departSpeed="0.00" departDelay="0.00" arrival="184.00" arrivalLane="edgeS_I_6" arrivalPos="385.70" arrivalSpeed="21.78" duration="156.00" routeLength="771.85" waitingTime="107.00" waitingCount="1" stopTime="0.00" timeLoss="122.96" rerouteNo="0" devices="tripinfo_uturnS_47" vType="vehicleS_47" speedFactor="0.99" vaporized=""/>
    <tripinfo id="straightW_120" depart="76.00" departLane="edgeW_O_2" departPos="3.95" departSpeed="0.00" departDelay="0.00" arrival="184.00" arrivalLane="edgeE_I_1" arrivalPos="676.10" arrivalSpeed="12.32" duration="108.00" routeLength="1196.05" waitingTime="0.00" waitingCount="0" stopTime="0.00" timeLoss="10.34" rerouteNo="0" devices="tripinfo_straightW_120" vType="vehicleW_120" speedFactor="0.80" vaporized=""/>