<?xml version="1.0" encoding="UTF-8"?>

<!-- generated on 2021-10-23 05:39:19 by Eclipse SUMO sumo Version 1.10.0
<configuration xmlns:xsi="http://www.w3.org/2001/XMLSchema-instance" xsi:noNamespaceSchemaLocation="http://sumo.dlr.de/xsd/sumoConfiguration.xsd">

    <input>
        <net-file value="data2/cross.net.xml"/>
        <route-files value="data2/cross.rou.xml"/>
        <additional-files value="data2/cross.tls.xml"/>
    </input>

    <output>
        <tripinfo-output value="data2/tripinfo.xml"/>
        <tripinfo-output.write-unfinished value="true"/>
    </output>

    <time>
        <begin value="0"/>
        <step-length value="1"/>
    </time>

    <processing>
        <threads value="5"/>
        <time-to-teleport value="-1"/>
    </processing>

    <report>
        <verbose value="true"/>
        <no-warnings value="true"/>
        <no-step-log value="true"/>
    </report>

    <traci_server>
        <remote-port value="49258"/>
    </traci_server>

    <gui_only>
        <gui-settings-file value="data2/viewsettings.xml"/>
        <tracker-interval value="1"/>
    </gui_only>

</configuration>
-->

<tripinfos xmlns:xsi="http://www.w3.org/2001/XMLSchema-instance" xsi:noNamespaceSchemaLocation="http://sumo.dlr.de/xsd/tripinfo_file.xsd">
    <tripinfo id="uturnE_10" depart="11.00" departLane="edgeE_O_5" departPos="4.22" departSpeed="0.00" departDelay="2.00" arrival="90.00" arrivalLane="edgeE_I_5" arrivalPos="392.10" arrivalSpeed="24.59" duration="79.00" routeLength="784.66" waitingTime="24.00" waitingCount="1" stopTime="0.00" timeLoss="36.80" rerouteNo="0" devices="tripinfo_uturnE_10" vType="vehicleE_10" speedFactor="1.24" vaporized=""/>
    <tripinfo id="uturnE_25" depart="20.00" departLane="edgeE_O_5" departPos="5.47" departSpeed="0.00" departDelay="0.00" arrival="102.00" arrivalLane="edgeE_I_4" arrivalPos="392.10" arrivalSpeed="16.61" duration="82.00" routeLength="783.40" waitingTime="7.00" waitingCount="1" stopTime="0.00" timeLoss="20.36" rerouteNo="0" devices="tripinfo_uturnE_25" vType="vehicleE_25" speedFactor="0.85" vaporized=""/>
    <tripinfo id="uturnS_0" depart="0.00" departLane="edgeS_O_1" departPos="4.37" departSpeed="0.00" departDelay="0.00" arrival="112.00" arrivalLane="edgeS_I_1" arrivalPos="679.30" arrivalSpeed="10.49" duration="112.00" routeLength="1358.90" waitingTime="0.00" waitingCount="0" stopTime="0.00" timeLoss="11.89" rerouteNo="0" devices="tripinfo_uturnS_0" vType="vehicleS_0" speedFactor="0.97" vaporized=""/>
    <tripinfo id="uturnS_6" depart="7.00" departLane="edgeS_O_1" departPos="4.26" departSpeed="0.00" departDelay="0.00" arrival="113.00" arrivalLane="edgeS_I_1" arrivalPos="679.30" arrivalSpeed="11.58" duration="106.00" routeLength="1359.00" waitingTime="0.00" waitingCount="0" stopTime="0.00" timeLoss="12.90" rerouteNo="0" devices="tripinfo_uturnS_6" vType="vehicleS_6" speedFactor="1.04" vaporized=""/>
    <tripinfo id="straightW_16" depart="13.00" departLane="edgeW_O_3" departPos="4.01" departSpeed="0.00" departDelay="0.00" arrival="113.00" arrivalLane="edgeE_I_1" arrivalPos="392.10" arrivalSpeed="21.69" duration="100.00" routeLength="1095.99" waitingTime="18.00" waitingCount="1" stopTime="0.00" timeLoss="30.10" rerouteNo="0" devices="tripinfo_straightW_16" vType="vehicleW_16" speedFactor="1.10" vaporized=""/>
    <tripinfo id="straightW_20" depart="17.00" departLane="edgeW_O_1" departPos="4.38" departSpeed="0.00" departDelay="0.00" arrival="113.00" arrivalLane="edgeE_I_2" arrivalPos="392.10" arrivalSpeed="20.77" duration="96.00" routeLength="1095.62" waitingTime="11.00" waitingCount="1" stopTime="0.00" timeLoss="22.96" rerouteNo="0" devices="tripinfo_straightW_20" vType="vehicleW_20" speedFactor="1.06" vaporized=""/>
    <tripinfo id="straightW_29" depart="23.00" departLane="edgeW_O_1" departPos="5.62" departSpeed="0.00" departDelay="0.00" arrival="114.00" arrivalLane="edgeE_I_3" arrivalPos="392.10" arrivalSpeed="20.81" duration="91.00" routeLength="1094.38" waitingTime="2.00" waitingCount="1" stopTime="0.00" timeLoss="18.11" rerouteNo="0" devices="tripinfo_straightW_29" vType="vehicleW_29" speedFactor="1.06" vaporized=""/>
    <tripinfo id="straightW_44" depart="31.00" departLane="edgeW_O_2" departPos="4.57" departSpeed="0.00" departDelay="0.00" arrival="114.00" arrivalLane="edgeE_I_4" arrivalPos="392.10" arrivalSpeed="24.45" duration="83.00" routeLength="1095.43" waitingTime="4.00" waitingCount="1" stopTime="0.00" timeLoss="17.71" rerouteNo="0" devices="tripinfo_straightW_44" vType="vehicleW_44" speedFactor="1.18" vaporized=""/>
    <tripinfo id="straightW_37" depart="27.00" departLane="edgeW_O_3" departPos="4.35" departSpeed="0.00" departDelay="0.00" arrival="118.00" arrivalLane="edgeE_I_3" arrivalPos="392.10" arrivalSpeed="19.03" duration="91.00" routeLength="1095.65" waitingTime="0.00" waitingCount="0" stopTime="0.00" timeLoss="8.80" rerouteNo="0" devices="tripinfo_straightW_37" vType="vehicleW_37" speedFactor="0.94" vaporized=""/>
    <tripinfo id="straightW_21" depart="19.00" departLane="edgeW_O_3" departPos="4.70" departSpeed="0.00" departDelay="0.00" arrival="119.00" arrivalLane="edgeE_I_2" arrivalPos="392.10" arrivalSpeed="19.68" duration="100.00" routeLength="1095.30" waitingTime="5.00" waitingCount="1" stopTime="0.00" timeLoss="20.32" rerouteNo="0" devices="tripinfo_straightW_21" vType="vehicleW_21" speedFactor="0.97" vaporized=""/>
    <tripinfo id="straightW_18" depart="14.00" departLane="edgeW_O_4" departPos="5.67" departSpeed="0.00" departDelay="0.00" arrival="121.00" arrivalLane="edgeE_I_2" arrivalPos="392.10" arrivalSpeed="18.83" duration="107.00" routeLength="1094.33" waitingTime="8.00" waitingCount="1" stopTime="0.00" timeLoss="22.54" rerouteNo="0" devices="tripinfo_straightW_18" vType="vehicleW_18" speedFactor="0.92" vaporized=""/>
    <tripinfo id="straightW_3" depart="2.00" departLane="edgeW_O_3" departPos="4.58" departSpeed="0.00" departDelay="0.00" arrival="122.00" arrivalLane="edgeE_I_1" arrivalPos="392.10" arrivalSpeed="15.99" duration="120.00" routeLength="1095.42" waitingTime="9.00" waitingCount="1" stopTime="0.00" timeLoss="21.70" rerouteNo="0" devices="tripinfo_straightW_3" vType="vehicleW_3" speedFactor="0.79" vaporized=""/>
    <tripinfo id="straightE_12" depart="10.00" departLane="edgeE_O_1" departPos="4.97" departSpeed="0.00" departDelay="0.00" arrival="123.00" arrivalLane="edgeW_I_2" arrivalPos="692.10" arrivalSpeed="25.81" duration="113.00" routeLength="1095.03" waitingTime="48.00" waitingCount="1" stopTime="0.00" timeLoss="59.48" rerouteNo="0" devices="tripinfo_straightE_12" vType="vehicleE_12" speedFactor="1.25" vaporized=""/>
    <tripinfo id="straightW_68" depart="48.00" departLane="edgeW_O_3" departPos="5.53" departSpeed="0.00" departDelay="0.00" arrival="123.00" arrivalLane="edgeE_I_2" arrivalPos="392.10" arrivalSpeed="22.29" duration="75.00" routeLength="1094.47" waitingTime="0.00" waitingCount="0" stopTime="0.00" timeLoss="8.31" rerouteNo="0" devices="tripinfo_straightW_68" vType="vehicleW_68" speedFactor="1.16" vaporized=""/>
    <tripinfo id="straightE_2" depart="1.00" departLane="edgeE_O_2" departPos="4.47" departSpeed="0.00" departDelay="0.00" arrival="124.00" arrivalLane="edgeW_I_1" arrivalPos="692.10" arrivalSpeed="24.14" duration="123.00" routeLength="1095.53" waitingTime="54.00" waitingCount="1" stopTime="0.00" timeLoss="65.98" rerouteNo="0" devices="tripinfo_straightE_2" vType="vehicleE_2" speedFactor="1.17" vaporized=""/>
    <tripinfo id="straightE_35" depart="30.00" departLane="edgeE_O_3" departPos="5.42" departSpeed="0.00" departDelay="4.00" arrival="128.00" arrivalLane="edgeW_I_2" arrivalPos="692.10" arrivalSpeed="23.37" duration="98.00" routeLength="1094.58" waitingTime="26.00" waitingCount="1" stopTime="0.00" timeLoss="39.21" rerouteNo="0" devices="tripinfo_straightE_35" vType="vehicleE_35" speedFactor="1.15" vaporized=""/>
    <tripinfo id="straightE_1" depart="0.00" departLane="edgeE_O_1" departPos="4.02" departSpeed="0.00" departDelay="0.00" arrival="130.00" arrivalLane="edgeW_I_1" arrivalPos="692.10" arrivalSpeed="20.23" duration="130.00" routeLength="1095.98" waitingTime="52.00" waitingCount="1" stopTime="0.00" timeLoss="63.03" rerouteNo="0" devices="tripinfo_straightE_1" vType="vehicleE_1" speedFactor="0.99" vaporized=""/>
    <tripinfo id="straightE_38" depart="33.00" departLane="edgeE_O_3" departPos="5.60" departSpeed="0.00" departDelay="6.00" arrival="130.00" arrivalLane="edgeW_I_5" arrivalPos="692.10" arrivalSpeed="25.55" duration="97.00" routeLength="1094.39" waitingTime="26.00" waitingCount="1" stopTime="0.00" timeLoss="43.09" rerouteNo="0" devices="tripinfo_straightE_38" vType="vehicleE_38" speedFactor="1.23" vaporized=""/>
    <tripinfo id="straightE_22" depart="19.00" departLane="edgeE_O_1" departPos="5.28" departSpeed="0.00" departDelay="0.00" arrival="131.00" arrivalLane="edgeW_I_3" arrivalPos="692.10" arrivalSpeed="21.74" duration="112.00" routeLength="1094.72" waitingTime="33.00" waitingCount="2" stopTime="0.00" timeLoss="49.34" rerouteNo="0" devices="tripinfo_straightE_22" vType="vehicleE_22" speedFactor="1.07" vaporized=""/>
    <tripinfo id="straightW_59" depart="39.00" departLane="edgeW_O_2" departPos="5.36" departSpeed="0.00" departDelay="0.00" arrival="132.00" arrivalLane="edgeE_I_2" arrivalPos="392.10" arrivalSpeed="17.70" duration="93.00" routeLength="1094.64" waitingTime="0.00" waitingCount="0" stopTime="0.00" timeLoss="7.83" rerouteNo="0" devices="tripinfo_straightW_59" vType="vehicleW_59" speedFactor="0.90" vaporized=""/>
    <tripinfo id="straightE_5" depart="6.00" departLane="edgeE_O_1" departPos="5.18" departSpeed="0.00" departDelay="0.00" arrival="133.00" arrivalLane="edgeW_I_1" arrivalPos="692.10" arrivalSpeed="19.66" duration="127.00" routeLength="1094.82" waitingTime="44.00" waitingCount="1" stopTime="0.00" timeLoss="57.82" rerouteNo="0" devices="tripinfo_straightE_5" vType="vehicleE_5" speedFactor="0.97" vaporized=""/>
    <tripinfo id="straightE_17" depart="13.00" departLane="edgeE_O_1" departPos="4.99" departSpeed="0.00" departDelay="0.00" arrival="135.00" arrivalLane="edgeW_I_1" arrivalPos="692.10" arrivalSpeed="18.64" duration="122.00" routeLength="1095.01" waitingTime="34.00" waitingCount="1" stopTime="0.00" timeLoss="47.94" rerouteNo="0" devices="tripinfo_straightE_17" vType="vehicleE_17" speedFactor="0.90" vaporized=""/>
    <tripinfo id="leftE_7" depart="8.00" departLane="edgeE_O_5" departPos="4.54" departSpeed="0.00" departDelay="0.00" arrival="136.00" arrivalLane="edgeS_I_1" arrivalPos="679.30" arrivalSpeed="11.53" duration="128.00" routeLength="1093.34" waitingTime="20.00" waitingCount="2" stopTime="0.00" timeLoss="34.79" rerouteNo="0" devices="tripinfo_leftE_7" vType="vehicleE_7" speedFactor="1.00" vaporized=""/>
    <tripinfo id="straightE_32" depart="24.00" departLane="edgeE_O_3" departPos="4.40" departSpeed="0.00" departDelay="0.00" arrival="136.00" arrivalLane="edgeW_I_2" arrivalPos="692.10" arrivalSpeed="18.06" duration="112.00" routeLength="1095.60" waitingTime="27.00" waitingCount="1" stopTime="0.00" timeLoss="40.52" rerouteNo="0" devices="tripinfo_straightE_32" vType="vehicleE_32" speedFactor="0.93" vaporized=""/>
    <tripinfo id="straightE_48" depart="32.00" departLane="edgeE_O_1" departPos="5.19" departSpeed="0.00" departDelay="0.00" arrival="136.00" arrivalLane="edgeW_I_3" arrivalPos="692.10" arrivalSpeed="18.72" duration="104.00" routeLength="1094.81" waitingTime="14.00" waitingCount="1" stopTime="0.00" timeLoss="35.63" rerouteNo="0" devices="tripinfo_straightE_48" vType="vehicleE_48" speedFactor="0.97" vaporized=""/>
    <tripinfo id="straightE_61" depart="41.00" departLane="edgeE_O_4" departPos="5.58" departSpeed="0.00" departDelay="0.00" arrival="137.00" arrivalLane="edgeW_I_3" arrivalPos="692.10" arrivalSpeed="20.08" duration="96.00" routeLength="1094.42" waitingTime="15.00" waitingCount="1" stopTime="0.00" timeLoss="27.70" rerouteNo="0" devices="tripinfo_straightE_61" vType="vehicleE_61" speedFactor="0.97" vaporized=""/>
    <tripinfo id="straightE_27" depart="22.00" departLane="edgeE_O_2" departPos="5.76" departSpeed="0.00" departDelay="0.00" arrival="138.00" arrivalLane="edgeW_I_1" arrivalPos="692.10" arrivalSpeed="17.42" duration="116.00" routeLength="1094.24" waitingTime="31.00" waitingCount="1" stopTime="0.00" timeLoss="40.92" rerouteNo="0" devices="tripinfo_straightE_27" vType="vehicleE_27" speedFactor="0.89" vaporized=""/>
    <tripinfo id="straightE_45" depart="31.00" departLane="edgeE_O_2" departPos="4.17" departSpeed="0.00" departDelay="0.00" arrival="138.00" arrivalLane="edgeW_I_2" arrivalPos="692.10" arrivalSpeed="18.94" duration="107.00" routeLength="1095.83" waitingTime="26.00" waitingCount="1" stopTime="0.00" timeLoss="47.49" rerouteNo="0" devices="tripinfo_straightE_45" vType="vehicleE_45" speedFactor="1.13" vaporized=""/>
    <tripinfo id="straightE_33" depart="27.00" departLane="edgeE_O_3" departPos="4.98" departSpeed="0.00" departDelay="2.00" arrival="139.00" arrivalLane="edgeW_I_1" arrivalPos="692.10" arrivalSpeed="18.45" duration="112.00" routeLength="1095.02" waitingTime="25.00" waitingCount="1" stopTime="0.00" timeLoss="38.82" rerouteNo="0" devices="tripinfo_straightE_33" vType="vehicleE_33" speedFactor="0.90" vaporized=""/>
    <tripinfo id="straightE_62" depart="42.00" departLane="edgeE_O_2" departPos="5.12" departSpeed="0.00" departDelay="0.00" arrival="139.00" arrivalLane="edgeW_I_4" arrivalPos="692.10" arrivalSpeed="18.99" duration="97.00" routeLength="1094.88" waitingTime="12.00" waitingCount="1" stopTime="0.00" timeLoss="25.25" rerouteNo="0" devices="tripinfo_straightE_62" vType="vehicleE_62" speedFactor="0.93" vaporized=""/>
    <tripinfo id="straightE_69" depart="48.00" departLane="edgeE_O_4" departPos="5.34" departSpeed="0.00" departDelay="0.00" arrival="139.00" arrivalLane="edgeW_I_5" arrivalPos="692.10" arrivalSpeed="20.32" duration="91.00" routeLength="1094.66" waitingTime="11.00" waitingCount="1" stopTime="0.00" timeLoss="25.51" rerouteNo="0" devices="tripinfo_straightE_69" vType="vehicleE_69" speedFactor="1.01" vaporized=""/>
    <tripinfo id="straightE_56" depart="36.00" departLane="edgeE_O_3" departPos="5.70" departSpeed="0.00" departDelay="0.00" arrival="141.00" arrivalLane="edgeW_I_2" arrivalPos="692.10" arrivalSpeed="18.43" duration="105.00" routeLength="1094.30" waitingTime="18.00" waitingCount="1" stopTime="0.00" timeLoss="31.37" rerouteNo="0" devices="tripinfo_straightE_56" vType="vehicleE_56" speedFactor="0.91" vaporized=""/>
    <tripinfo id="straightE_72" depart="50.00" departLane="edgeE_O_1" departPos="4.63" departSpeed="0.00" departDelay="0.00" arrival="141.00" arrivalLane="edgeW_I_4" arrivalPos="692.10" arrivalSpeed="20.27" duration="91.00" routeLength="1095.37" waitingTime="5.00" waitingCount="1" stopTime="0.00" timeLoss="25.52" rerouteNo="0" devices="tripinfo_straightE_72" vType="vehicleE_72" speedFactor="1.03" vaporized=""/>
    <tripinfo id="straightE_53" depart="36.00" departLane="edgeE_O_2" departPos="4.71" departSpeed="0.00" departDelay="2.00" arrival="142.00" arrivalLane="edgeW_I_1" arrivalPos="692.10" arrivalSpeed="19.13" duration="106.00" routeLength="1095.29" waitingTime="19.00" waitingCount="1" stopTime="0.00" timeLoss="35.02" rerouteNo="0" devices="tripinfo_straightE_53" vType="vehicleE_53" speedFactor="0.94" vaporized=""/>
    <tripinfo id="straightE_91" depart="66.00" departLane="edgeE_O_1" departPos="4.74" departSpeed="0.00" departDelay="3.00" arrival="143.00" arrivalLane="edgeW_I_5" arrivalPos="692.10" arrivalSpeed="22.66" duration="77.00" routeLength="1095.26" waitingTime="0.00" waitingCount="0" stopTime="0.00" timeLoss="16.95" rerouteNo="0" devices="tripinfo_straightE_91" vType="vehicleE_91" speedFactor="1.12" vaporized=""/>
    <tripinfo id="straightE_58" depart="38.00" departLane="edgeE_O_4" departPos="5.01" departSpeed="0.00" departDelay="0.00" arrival="144.00" arrivalLane="edgeW_I_3" arrivalPos="692.10" arrivalSpeed="16.60" duration="106.00" routeLength="1094.99" waitingTime="12.00" waitingCount="1" stopTime="0.00" timeLoss="27.88" rerouteNo="0" devices="tripinfo_straightE_58" vType="vehicleE_58" speedFactor="0.85" vaporized=""/>
    <tripinfo id="straightE_76" depart="52.00" departLane="edgeE_O_4" departPos="4.64" departSpeed="0.00" departDelay="0.00" arrival="144.00" arrivalLane="edgeW_I_4" arrivalPos="692.10" arrivalSpeed="19.76" duration="92.00" routeLength="1095.36" waitingTime="7.00" waitingCount="2" stopTime="0.00" timeLoss="23.29" rerouteNo="0" devices="tripinfo_straightE_76" vType="vehicleE_76" speedFactor="0.97" vaporized=""/>
    <tripinfo id="straightE_99" depart="70.00" departLane="edgeE_O_4" departPos="5.62" departSpeed="0.00" departDelay="1.00" arrival="144.00" arrivalLane="edgeW_I_5" arrivalPos="692.10" arrivalSpeed="21.95" duration="74.00" routeLength="1094.38" waitingTime="0.00" waitingCount="0" stopTime="0.00" timeLoss="11.06" rerouteNo="0" devices="tripinfo_straightE_99" vType="vehicleE_99" speedFactor="1.06" vaporized=""/>
    <tripinfo id="straightE_65" depart="43.00" departLane="edgeE_O_1" departPos="4.08" departSpeed="0.00" departDelay="0.00" arrival="145.00" arrivalLane="edgeW_I_2" arrivalPos="692.10" arrivalSpeed="19.98" duration="102.00" routeLength="1095.92" waitingTime="14.00" waitingCount="1" stopTime="0.00" timeLoss="35.22" rerouteNo="0" devices="tripinfo_straightE_65" vType="vehicleE_65" speedFactor="1.00" vaporized=""/>
    <tripinfo id="straightW_87" depart="61.00" departLane="edgeW_O_4" departPos="4.85" departSpeed="0.00" departDelay="0.00" arrival="145.00" arrivalLane="edgeE_I_1" arrivalPos="392.10" arrivalSpeed="19.43" duration="84.00" routeLength="1095.15" waitingTime="0.00" waitingCount="0" stopTime="0.00" timeLoss="7.09" rerouteNo="0" devices="tripinfo_straightW_87" vType="vehicleW_87" speedFactor="1.01" vaporized=""/>
    <tripinfo id="straightE_90" depart="62.00" departLane="edgeE_O_2" departPos="4.97" departSpeed="0.00" departDelay="0.00" arrival="145.00" arrivalLane="edgeW_I_4" arrivalPos="692.10" arrivalSpeed="20.12" duration="83.00" routeLength="1095.03" waitingTime="1.00" waitingCount="1" stopTime="0.00" timeLoss="15.19" rerouteNo="0" devices="tripinfo_straightE_90" vType="vehicleE_90" speedFactor="0.98" vaporized=""/>
    <tripinfo id="straightE_66" depart="44.00" departLane="edgeE_O_4" departPos="5.33" departSpeed="0.00" departDelay="0.00" arrival="146.00" arrivalLane="edgeW_I_2" arrivalPos="692.10" arrivalSpeed="17.90" duration="102.00" routeLength="1094.67" waitingTime="13.00" waitingCount="1" stopTime="0.00" timeLoss="25.98" rerouteNo="0" devices="tripinfo_straightE_66" vType="vehicleE_66" speedFactor="0.88" vaporized=""/>
    <tripinfo id="straightE_80" depart="55.00" departLane="edgeE_O_3" departPos="4.56" departSpeed="0.00" departDelay="0.00" arrival="146.00" arrivalLane="edgeW_I_3" arrivalPos="692.10" arrivalSpeed="20.39" duration="91.00" routeLength="1095.44" waitingTime="8.00" waitingCount="1" stopTime="0.00" timeLoss="36.61" rerouteNo="0" devices="tripinfo_straightE_80" vType="vehicleE_80" speedFactor="1.23" vaporized=""/>
    <tripinfo id="straightW_89" depart="62.00" departLane="edgeW_O_3" departPos="4.07" departSpeed="0.00" departDelay="0.00" arrival="146.00" arrivalLane="edgeE_I_2" arrivalPos="392.10" arrivalSpeed="20.35" duration="84.00" routeLength="1095.93" waitingTime="0.00" waitingCount="0" stopTime="0.00" timeLoss="7.84" rerouteNo="0" devices="tripinfo_straightW_89" vType="vehicleW_89" speedFactor="1.02" vaporized=""/>
    <tripinfo id="leftE_41" depart="29.00" departLane="edgeE_O_4" departPos="4.63" departSpeed="0.00" departDelay="0.00" arrival="147.00" arrivalLane="edgeS_I_1" arrivalPos="679.30" arrivalSpeed="10.80" duration="118.00" routeLength="1093.25" waitingTime="5.00" waitingCount="1" stopTime="0.00" timeLoss="20.03" rerouteNo="0" devices="tripinfo_leftE_41" vType="vehicleE_41" speedFactor="0.95" vaporized=""/>
    <tripinfo id="straightE_109" depart="79.00" departLane="edgeE_O_2" departPos="4.82" departSpeed="0.00" departDelay="0.00" arrival="147.00" arrivalLane="edgeW_I_5" arrivalPos="692.10" arrivalSpeed="21.70" duration="68.00" routeLength="1095.18" waitingTime="0.00" waitingCount="0" stopTime="0.00" timeLoss="7.17" rerouteNo="0" devices="tripinfo_straightE_109" vType="vehicleE_109" speedFactor="1.10" vaporized=""/>
    <tripinfo id="leftE_81" depart="56.00" departLane="edgeE_O_5" departPos="5.68" departSpeed="0.00" departDelay="0.00" arrival="148.00" arrivalLane="edgeS_I_1" arrivalPos="679.30" arrivalSpeed="13.17" duration="92.00" routeLength="1092.20" waitingTime="0.00" waitingCount="0" stopTime="0.00" timeLoss="11.33" rerouteNo="0" devices="tripinfo_leftE_81" vType="vehicleE_81" speedFactor="1.15" vaporized=""/>
    <tripinfo id="straightE_94" depart="64.00" departLane="edgeE_O_3" departPos="5.52" departSpeed="0.00" departDelay="0.00" arrival="148.00" arrivalLane="edgeW_I_3" arrivalPos="692.10" arrivalSpeed="21.12" duration="84.00" routeLength="1094.48" waitingTime="0.00" waitingCount="0" stopTime="0.00" timeLoss="20.55" rerouteNo="0" devices="tripinfo_straightE_94" vType="vehicleE_94" speedFactor="1.06" vaporized=""/>
    <tripinfo id="straightE_83" depart="58.00" departLane="edgeE_O_3" departPos="5.17" departSpeed="0.00" departDelay="1.00" arrival="149.00" arrivalLane="edgeW_I_4" arrivalPos="692.10" arrivalSpeed="18.72" duration="91.00" routeLength="1094.84" waitingTime="2.00" waitingCount="1" stopTime="0.00" timeLoss="18.27" rerouteNo="0" devices="tripinfo_straightE_83" vType="vehicleE_83" speedFactor="0.92" vaporized=""/>
    <tripinfo id="straightE_51" depart="33.00" departLane="edgeE_O_2" departPos="4.43" departSpeed="0.00" departDelay="0.00" arrival="150.00" arrivalLane="edgeW_I_2" arrivalPos="692.10" arrivalSpeed="14.70" duration="117.00" routeLength="1095.57" waitingTime="17.00" waitingCount="2" stopTime="0.00" timeLoss="31.54" rerouteNo="0" devices="tripinfo_straightE_51" vType="vehicleE_51" speedFactor="0.78" vaporized=""/>
    <tripinfo id="straightE_74" depart="51.00" departLane="edgeE_O_2" departPos="4.33" departSpeed="0.00" departDelay="0.00" arrival="150.00" arrivalLane="edgeW_I_3" arrivalPos="692.10" arrivalSpeed="20.30" duration="99.00" routeLength="1095.67" waitingTime="13.00" waitingCount="1" stopTime="0.00" timeLoss="40.91" rerouteNo="0" devices="tripinfo_straightE_74" vType="vehicleE_74" speedFactor="1.15" vaporized=""/>
    <tripinfo id="straightE_102" depart="72.00" departLane="edgeE_O_2" departPos="5.33" departSpeed="0.00" departDelay="0.00" arrival="150.00" arrivalLane="edgeW_I_4" arrivalPos="692.10" arrivalSpeed="18.60" duration="78.00" routeLength="1094.67" waitingTime="0.00" waitingCount="0" stopTime="0.00" timeLoss="9.27" rerouteNo="0" devices="tripinfo_straightE_102" vType="vehicleE_102" speedFactor="0.96" vaporized=""/>
    <tripinfo id="straightE_79" depart="54.00" departLane="edgeE_O_2" departPos="5.46" departSpeed="0.00" departDelay="0.00" arrival="151.00" arrivalLane="edgeW_I_1" arrivalPos="692.10" arrivalSpeed="17.86" duration="97.00" routeLength="1094.54" waitingTime="5.00" waitingCount="1" stopTime="0.00" timeLoss="21.46" rerouteNo="0" devices="tripinfo_straightE_79" vType="vehicleE_79" speedFactor="0.89" vaporized=""/>
    <tripinfo id="straightE_88" depart="63.00" departLane="edgeE_O_1" departPos="5.71" departSpeed="0.00" departDelay="2.00" arrival="151.00" arrivalLane="edgeW_I_2" arrivalPos="692.10" arrivalSpeed="19.03" duration="88.00" routeLength="1094.29" waitingTime="0.00" waitingCount="0" stopTime="0.00" timeLoss="21.09" rerouteNo="0" devices="tripinfo_straightE_88" vType="vehicleE_88" speedFactor="0.99" vaporized=""/>
    <tripinfo id="straightE_116" depart="86.00" departLane="edgeE_O_4" departPos="4.43" departSpeed="0.00" departDelay="0.00" arrival="151.00" arrivalLane="edgeW_I_5" arrivalPos="692.10" arrivalSpeed="22.68" duration="65.00" routeLength="1095.57" waitingTime="0.00" waitingCount="0" stopTime="0.00" timeLoss="5.59" rerouteNo="0" devices="tripinfo_straightE_116" vType="vehicleE_116" speedFactor="1.12" vaporized=""/>
    <tripinfo id="straightE_96" depart="67.00" departLane="edgeE_O_4" departPos="5.23" departSpeed="0.00" departDelay="0.00" arrival="152.00" arrivalLane="edgeW_I_3" arrivalPos="692.10" arrivalSpeed="19.56" duration="85.00" routeLength="1094.77" waitingTime="0.00" waitingCount="0" stopTime="0.00" timeLoss="15.60" rerouteNo="0" devices="tripinfo_straightE_96" vType="vehicleE_96" speedFactor="0.96" vaporized=""/>
    <tripinfo id="straightE_101" depart="71.00" departLane="edgeE_O_1" departPos="5.72" departSpeed="0.00" departDelay="0.00" arrival="153.00" arrivalLane="edgeW_I_2" arrivalPos="692.10" arrivalSpeed="19.55" duration="82.00" routeLength="1094.28" waitingTime="0.00" waitingCount="0" stopTime="0.00" timeLoss="15.90" rerouteNo="0" devices="tripinfo_straightE_101" vType="vehicleE_101" speedFactor="1.00" vaporized=""/>
    <tripinfo id="straightE_86" depart="60.00" departLane="edgeE_O_1" departPos="5.24" departSpeed="0.00" departDelay="0.00" arrival="154.00" arrivalLane="edgeW_I_1" arrivalPos="692.10" arrivalSpeed="21.35" duration="94.00" routeLength="1094.76" waitingTime="2.00" waitingCount="1" stopTime="0.00" timeLoss="31.56" rerouteNo="0" devices="tripinfo_straightE_86" vType="vehicleE_86" speedFactor="1.08" vaporized=""/>
    <tripinfo id="straightW_104" depart="74.00" departLane="edgeW_O_1" departPos="4.38" departSpeed="0.00" departDelay="0.00" arrival="154.00" arrivalLane="edgeE_I_1" arrivalPos="392.10" arrivalSpeed="21.30" duration="80.00" routeLength="1095.62" waitingTime="0.00" waitingCount="0" stopTime="0.00" timeLoss="8.08" rerouteNo="0" devices="tripinfo_straightW_104" vType="vehicleW_104" speedFactor="1.08" vaporized=""/>
    <tripinfo id="straightW_98" depart="69.00" departLane="edgeW_O_2" departPos="5.45" departSpeed="0.00" departDelay="0.00" arrival="157.00" arrivalLane="edgeE_I_1" arrivalPos="392.10" arrivalSpeed="18.52" duration="88.00" routeLength="1094.55" waitingTime="0.00" waitingCount="0" stopTime="0.00" timeLoss="7.39" rerouteNo="0" devices="tripinfo_straightW_98" vType="vehicleW_98" speedFactor="0.95" vaporized=""/>
    <tripinfo id="straightE_108" depart="76.00" departLane="edgeE_O_2" departPos="5.03" departSpeed="0.00" departDelay="0.00" arrival="158.00" arrivalLane="edgeW_I_1" arrivalPos="692.10" arrivalSpeed="17.35" duration="82.00" routeLength="1094.97" waitingTime="0.00" waitingCount="0" stopTime="0.00" timeLoss="6.89" rerouteNo="0" devices="tripinfo_straightE_108" vType="vehicleE_108" speedFactor="0.89" vaporized=""/>
    <tripinfo id="leftE_85" depart="59.00" departLane="edgeE_O_5" departPos="4.84" departSpeed="0.00" departDelay="0.00" arrival="159.00" arrivalLane="edgeS_I_1" arrivalPos="679.30" arrivalSpeed="11.73" duration="100.00" routeLength="1093.04" waitingTime="0.00" waitingCount="0" stopTime="0.00" timeLoss="13.61" rerouteNo="0" devices="tripinfo_leftE_85" vType="vehicleE_85" speedFactor="1.08" vaporized=""/>
    <tripinfo id="leftE_4" depart="5.00" departLane="edgeE_O_4" departPos="4.49" departSpeed="0.00" departDelay="0.00" arrival="164.00" arrivalLane="edgeS_I_1" arrivalPos="679.30" arrivalSpeed="12.13" duration="159.00" routeLength="1096.32" waitingTime="56.00" waitingCount="2" stopTime="0.00" timeLoss="74.35" rerouteNo="0" devices="tripinfo_leftE_4" vType="vehicleE_4" speedFactor="1.10" vaporized=""/>
    <tripinfo id="straightE_125" depart="93.00" departLane="edgeE_O_4" departPos="4.22" departSpeed="0.00" departDelay="0.00" arrival="168.00" arrivalLane="edgeW_I_1" arrivalPos="692.10" arrivalSpeed="21.20" duration="75.00" routeLength="1095.78" waitingTime="0.00" waitingCount="0" stopTime="0.00" timeLoss="12.15" rerouteNo="0" devices="tripinfo_straightE_125" vType="vehicleE_125" speedFactor="1.06" vaporized=""/>
    <tripinfo id="leftE_100" depart="70.00" departLane="edgeE_O_5" departPos="4.26" departSpeed="0.00" departDelay="0.00" arrival="192.00" arrivalLane="edgeS_I_1" arrivalPos="679.30" arrivalSpeed="8.72" duration="122.00" routeLength="1093.62" waitingTime="0.00" waitingCount="0" stopTime="0.00" timeLoss="10.33" rerouteNo="0" devices="tripinfo_leftE_100" vType="vehicleE_100" speedFactor="0.83" vaporized=""/>
    <tripinfo id="leftE_106" depart="75.00" departLane="edgeE_O_4" departPos="4.31" departSpeed="0.00" departDelay="0.00" arrival="194.00" arrivalLane="edgeS_I_1" arrivalPos="679.30" arrivalSpeed="10.68" duration="119.00" routeLength="1093.57" waitingTime="0.00" waitingCount="0" stopTime="0.00" timeLoss="27.19" rerouteNo="0" devices="tripinfo_leftE_106" vType="vehicleE_106" speedFactor="1.01" vaporized=""/>
    <tripinfo id="leftE_113" depart="84.00" departLane="edgeE_O_5" departPos="5.11" departSpeed="0.00" departDelay="0.00" arrival="197.00" arrivalLane="edgeS_I_1" arrivalPos="679.30" arrivalSpeed="10.53" duration="113.00" routeLength="1092.77" waitingTime="0.00" waitingCount="0" stopTime="0.00" timeLoss="12.83" rerouteNo="0" devices="tripinfo_leftE_113" vType="vehicleE_113" speedFactor="0.92" vaporized=""/>
    <tripinfo id="leftE_123" depart="92.00" departLane="edgeE_O_5" departPos="4.94" departSpeed="0.00" departDelay="0.00" arrival="204.00" arrivalLane="edgeS_I_1" arrivalPos="679.30" arrivalSpeed="10.90" duration="112.00" routeLength="1095.87" waitingTime="4.00" waitingCount="1" stopTime="0.00" timeLoss="16.87" rerouteNo="0" devices="tripinfo_leftE_123" vType="vehicleE_123" speedFactor="0.97" vaporized=""/>
    <tripinfo id="uturnS_9" depart="10.00" departLane="edgeS_O_1" departPos="4.94" departSpeed="0.00" departDelay="1.00" arrival="218.00" arrivalLane="edgeS_I_1" arrivalPos="679.30" arrivalSpeed="11.66" duration="208.00" routeLength="1358.33" waitingTime="98.00" waitingCount="1" stopTime="0.00" timeLoss="113.17" rerouteNo="0" devices="tripinfo_uturnS_9" vType="vehicleS_9" speedFactor="1.03" vaporized=""/>