<?xml version="1.0" encoding="UTF-8"?>

<!-- generated on 2021-10-23 04:06:19 by Eclipse SUMO sumo Version 1.10.0
<configuration xmlns:xsi="http://www.w3.org/2001/XMLSchema-instance" xsi:noNamespaceSchemaLocation="http://sumo.dlr.de/xsd/sumoConfiguration.xsd">

    <input>
        <net-file value="data2/cross.net.xml"/>
        <route-files value="data2/cross.rou.xml"/>
        <additional-files value="data2/cross.tls.xml"/>
    </input>

    <output>
        <tripinfo-output value="data2/tripinfo.xml"/>
        <tripinfo-output.write-unfinished value="true"/>
    </output>

    <time>
        <begin value="0"/>
        <step-length value="1"/>
    </time>

    <processing>
        <threads value="5"/>
        <time-to-teleport value="-1"/>
    </processing>

    <report>
        <verbose value="true"/>
        <no-warnings value="true"/>
        <no-step-log value="true"/>
    </report>

    <traci_server>
        <remote-port value="54636"/>
    </traci_server>

    <gui_only>
        <gui-settings-file value="data2/viewsettings.xml"/>
        <tracker-interval value="1"/>
    </gui_only>

</configuration>
-->

<tripinfos xmlns:xsi="http://www.w3.org/2001/XMLSchema-instance" xsi:noNamespaceSchemaLocation="http://sumo.dlr.de/xsd/tripinfo_file.xsd">
    <tripinfo id="straightE_5" depart="3.00" departLane="edgeE_O_2" departPos="4.53" departSpeed="0.00" departDelay="0.00" arrival="77.00" arrivalLane="edgeW_I_3" arrivalPos="879.30" arrivalSpeed="30.55" duration="74.00" routeLength="1795.47" waitingTime="0.00" waitingCount="0" stopTime="0.00" timeLoss="8.58" rerouteNo="0" devices="tripinfo_straightE_5" vType="vehicleE_5" speedFactor="1.15" vaporized=""/>
    <tripinfo id="straightE_1" depart="0.00" departLane="edgeE_O_5" departPos="4.43" departSpeed="0.00" departDelay="0.00" arrival="83.00" arrivalLane="edgeW_I_1" arrivalPos="879.30" arrivalSpeed="25.50" duration="83.00" routeLength="1795.57" waitingTime="0.00" waitingCount="0" stopTime="0.00" timeLoss="6.69" rerouteNo="0" devices="tripinfo_straightE_1" vType="vehicleE_1" speedFactor="0.98" vaporized=""/>
    <tripinfo id="straightW_9" depart="7.00" departLane="edgeW_O_5" departPos="5.26" departSpeed="0.00" departDelay="0.00" arrival="87.00" arrivalLane="edgeE_I_2" arrivalPos="879.30" arrivalSpeed="27.36" duration="80.00" routeLength="1794.74" waitingTime="0.00" waitingCount="0" stopTime="0.00" timeLoss="7.54" rerouteNo="0" devices="tripinfo_straightW_9" vType="vehicleW_9" speedFactor="1.04" vaporized=""/>
    <tripinfo id="straightE_15" depart="11.00" departLane="edgeE_O_4" departPos="4.09" departSpeed="0.00" departDelay="0.00" arrival="87.00" arrivalLane="edgeW_I_2" arrivalPos="879.30" arrivalSpeed="27.53" duration="76.00" routeLength="1795.91" waitingTime="0.00" waitingCount="0" stopTime="0.00" timeLoss="6.41" rerouteNo="0" devices="tripinfo_straightE_15" vType="vehicleE_15" speedFactor="1.08" vaporized=""/>
    <tripinfo id="straightE_17" depart="12.00" departLane="edgeE_O_5" departPos="5.58" departSpeed="0.00" departDelay="0.00" arrival="89.00" arrivalLane="edgeW_I_3" arrivalPos="879.30" arrivalSpeed="28.32" duration="77.00" routeLength="1794.41" waitingTime="0.00" waitingCount="0" stopTime="0.00" timeLoss="6.99" rerouteNo="0" devices="tripinfo_straightE_17" vType="vehicleE_17" speedFactor="1.07" vaporized=""/>
    <tripinfo id="straightW_14" depart="10.00" departLane="edgeW_O_4" departPos="5.42" departSpeed="0.00" departDelay="0.00" arrival="91.00" arrivalLane="edgeE_I_1" arrivalPos="879.30" arrivalSpeed="26.61" duration="81.00" routeLength="1794.59" waitingTime="0.00" waitingCount="0" stopTime="0.00" timeLoss="7.22" rerouteNo="0" devices="tripinfo_straightW_14" vType="vehicleW_14" speedFactor="1.03" vaporized=""/>
    <tripinfo id="straightE_32" depart="23.00" departLane="edgeE_O_4" departPos="4.97" departSpeed="0.00" departDelay="2.00" arrival="93.00" arrivalLane="edgeW_I_5" arrivalPos="879.30" arrivalSpeed="32.01" duration="70.00" routeLength="1795.03" waitingTime="0.00" waitingCount="0" stopTime="0.00" timeLoss="8.67" rerouteNo="0" devices="tripinfo_straightE_32" vType="vehicleE_32" speedFactor="1.23" vaporized=""/>
    <tripinfo id="straightE_31" depart="20.00" departLane="edgeE_O_4" departPos="4.44" departSpeed="0.00" departDelay="0.00" arrival="94.00" arrivalLane="edgeW_I_4" arrivalPos="879.30" arrivalSpeed="29.03" duration="74.00" routeLength="1795.55" waitingTime="0.00" waitingCount="0" stopTime="0.00" timeLoss="7.33" rerouteNo="0" devices="tripinfo_straightE_31" vType="vehicleE_31" speedFactor="1.13" vaporized=""/>
    <tripinfo id="straightW_30" depart="20.00" departLane="edgeW_O_4" departPos="5.12" departSpeed="0.00" departDelay="0.00" arrival="96.00" arrivalLane="edgeE_I_4" arrivalPos="879.30" arrivalSpeed="27.98" duration="76.00" routeLength="1794.88" waitingTime="0.00" waitingCount="0" stopTime="0.00" timeLoss="6.68" rerouteNo="0" devices="tripinfo_straightW_30" vType="vehicleW_30" speedFactor="1.09" vaporized=""/>
    <tripinfo id="straightW_11" depart="10.00" departLane="edgeW_O_5" departPos="5.34" departSpeed="0.00" departDelay="2.00" arrival="97.00" arrivalLane="edgeE_I_1" arrivalPos="879.30" arrivalSpeed="24.85" duration="87.00" routeLength="1794.66" waitingTime="0.00" waitingCount="0" stopTime="0.00" timeLoss="7.00" rerouteNo="0" devices="tripinfo_straightW_11" vType="vehicleW_11" speedFactor="0.94" vaporized=""/>
    <tripinfo id="straightW_28" depart="19.00" departLane="edgeW_O_2" departPos="4.87" departSpeed="0.00" departDelay="0.00" arrival="97.00" arrivalLane="edgeE_I_3" arrivalPos="879.30" arrivalSpeed="26.56" duration="78.00" routeLength="1795.13" waitingTime="0.00" waitingCount="0" stopTime="0.00" timeLoss="6.84" rerouteNo="0" devices="tripinfo_straightW_28" vType="vehicleW_28" speedFactor="1.06" vaporized=""/>
    <tripinfo id="straightE_6" depart="6.00" departLane="edgeE_O_2" departPos="5.14" departSpeed="0.00" departDelay="2.00" arrival="99.00" arrivalLane="edgeW_I_1" arrivalPos="879.30" arrivalSpeed="22.97" duration="93.00" routeLength="1794.86" waitingTime="0.00" waitingCount="0" stopTime="0.00" timeLoss="6.38" rerouteNo="0" devices="tripinfo_straightE_6" vType="vehicleE_6" speedFactor="0.87" vaporized=""/>
    <tripinfo id="straightE_20" depart="15.00" departLane="edgeE_O_5" departPos="5.14" departSpeed="0.00" departDelay="0.00" arrival="99.00" arrivalLane="edgeW_I_3" arrivalPos="879.30" arrivalSpeed="26.24" duration="84.00" routeLength="1794.86" waitingTime="0.00" waitingCount="0" stopTime="0.00" timeLoss="7.17" rerouteNo="0" devices="tripinfo_straightE_20" vType="vehicleE_20" speedFactor="0.99" vaporized=""/>
    <tripinfo id="straightW_22" depart="17.00" departLane="edgeW_O_3" departPos="4.61" departSpeed="0.00" departDelay="0.00" arrival="99.00" arrivalLane="edgeE_I_2" arrivalPos="879.30" arrivalSpeed="26.09" duration="82.00" routeLength="1795.39" waitingTime="0.00" waitingCount="0" stopTime="0.00" timeLoss="6.17" rerouteNo="0" devices="tripinfo_straightW_22" vType="vehicleW_22" speedFactor="1.00" vaporized=""/>
    <tripinfo id="straightE_25" depart="18.00" departLane="edgeE_O_5" departPos="4.40" departSpeed="0.00" departDelay="0.00" arrival="101.00" arrivalLane="edgeW_I_3" arrivalPos="879.30" arrivalSpeed="25.68" duration="83.00" routeLength="1795.59" waitingTime="0.00" waitingCount="0" stopTime="0.00" timeLoss="7.06" rerouteNo="0" devices="tripinfo_straightE_25" vType="vehicleE_25" speedFactor="1.00" vaporized=""/>
    <tripinfo id="leftS_8" depart="6.00" departLane="edgeS_O_5" departPos="4.57" departSpeed="0.00" departDelay="0.00" arrival="122.00" arrivalLane="edgeW_I_5" arrivalPos="879.30" arrivalSpeed="31.56" duration="116.00" routeLength="1890.00" waitingTime="0.00" waitingCount="0" stopTime="0.00" timeLoss="14.79" rerouteNo="0" devices="tripinfo_leftS_8" vType="vehicleS_8" speedFactor="1.20" vaporized=""/>
    <tripinfo id="leftN_4" depart="4.00" departLane="edgeN_O_5" departPos="4.80" departSpeed="0.00" departDelay="2.00" arrival="135.00" arrivalLane="edgeE_I_5" arrivalPos="879.30" arrivalSpeed="28.68" duration="131.00" routeLength="1889.77" waitingTime="5.00" waitingCount="1" stopTime="0.00" timeLoss="21.87" rerouteNo="0" devices="tripinfo_leftN_4" vType="vehicleN_4" speedFactor="1.10" vaporized=""/>
    <tripinfo id="leftS_3" depart="1.00" departLane="edgeS_O_5" departPos="5.60" departSpeed="0.00" departDelay="0.00" arrival="146.00" arrivalLane="edgeW_I_4" arrivalPos="879.30" arrivalSpeed="24.88" duration="145.00" routeLength="1888.97" waitingTime="5.00" waitingCount="1" stopTime="0.00" timeLoss="21.19" rerouteNo="0" devices="tripinfo_leftS_3" vType="vehicleS_3" speedFactor="0.97" vaporized=""/>
    <tripinfo id="straightN_2" depart="1.00" departLane="edgeN_O_5" departPos="5.36" departSpeed="0.00" departDelay="0.00" arrival="153.00" arrivalLane="edgeS_I_1" arrivalPos="979.30" arrivalSpeed="14.95" duration="152.00" routeLength="1994.64" waitingTime="2.00" waitingCount="1" stopTime="0.00" timeLoss="17.15" rerouteNo="0" devices="tripinfo_straightN_2" vType="vehicleN_2" speedFactor="1.23" vaporized=""/>
    <tripinfo id="straightW_86" depart="75.00" departLane="edgeW_O_4" departPos="4.60" departSpeed="0.00" departDelay="0.00" arrival="154.00" arrivalLane="edgeE_I_5" arrivalPos="879.30" arrivalSpeed="34.20" duration="79.00" routeLength="1795.40" waitingTime="4.00" waitingCount="1" stopTime="0.00" timeLoss="20.45" rerouteNo="0" devices="tripinfo_straightW_86" vType="vehicleW_86" speedFactor="1.29" vaporized=""/>
    <tripinfo id="straightE_49" depart="32.00" departLane="edgeE_O_4" departPos="4.59" departSpeed="0.00" departDelay="1.00" arrival="158.00" arrivalLane="edgeW_I_3" arrivalPos="879.30" arrivalSpeed="27.18" duration="126.00" routeLength="1795.41" waitingTime="40.00" waitingCount="1" stopTime="0.00" timeLoss="53.35" rerouteNo="0" devices="tripinfo_straightE_49" vType="vehicleE_49" speedFactor="1.04" vaporized=""/>
    <tripinfo id="straightE_40" depart="26.00" departLane="edgeE_O_5" departPos="4.23" departSpeed="0.00" departDelay="0.00" arrival="161.00" arrivalLane="edgeW_I_1" arrivalPos="879.30" arrivalSpeed="24.38" duration="135.00" routeLength="1795.77" waitingTime="39.00" waitingCount="1" stopTime="0.00" timeLoss="53.28" rerouteNo="0" devices="tripinfo_straightE_40" vType="vehicleE_40" speedFactor="0.92" vaporized=""/>
    <tripinfo id="straightE_59" depart="43.00" departLane="edgeE_O_5" departPos="5.52" departSpeed="0.00" departDelay="0.00" arrival="161.00" arrivalLane="edgeW_I_5" arrivalPos="879.30" arrivalSpeed="26.55" duration="118.00" routeLength="1794.48" waitingTime="30.00" waitingCount="1" stopTime="0.00" timeLoss="44.11" rerouteNo="0" devices="tripinfo_straightE_59" vType="vehicleE_59" speedFactor="1.02" vaporized=""/>
    <tripinfo id="straightW_35" depart="24.00" departLane="edgeW_O_4" departPos="4.40" departSpeed="0.00" departDelay="0.00" arrival="162.00" arrivalLane="edgeE_I_1" arrivalPos="879.30" arrivalSpeed="27.99" duration="138.00" routeLength="1795.60" waitingTime="46.00" waitingCount="1" stopTime="0.00" timeLoss="66.24" rerouteNo="0" devices="tripinfo_straightW_35" vType="vehicleW_35" speedFactor="1.05" vaporized=""/>
    <tripinfo id="straightE_41" depart="27.00" departLane="edgeE_O_3" departPos="5.35" departSpeed="0.00" departDelay="0.00" arrival="162.00" arrivalLane="edgeW_I_2" arrivalPos="879.30" arrivalSpeed="23.78" duration="135.00" routeLength="1794.65" waitingTime="38.00" waitingCount="1" stopTime="0.00" timeLoss="53.83" rerouteNo="0" devices="tripinfo_straightE_41" vType="vehicleE_41" speedFactor="0.93" vaporized=""/>
    <tripinfo id="straightW_84" depart="73.00" departLane="edgeW_O_2" departPos="5.15" departSpeed="0.00" departDelay="0.00" arrival="162.00" arrivalLane="edgeE_I_5" arrivalPos="879.30" arrivalSpeed="26.52" duration="89.00" routeLength="1794.85" waitingTime="0.00" waitingCount="0" stopTime="0.00" timeLoss="15.32" rerouteNo="0" devices="tripinfo_straightW_84" vType="vehicleW_84" speedFactor="1.03" vaporized=""/>
    <tripinfo id="straightW_47" depart="30.00" departLane="edgeW_O_2" departPos="5.23" departSpeed="0.00" departDelay="0.00" arrival="163.00" arrivalLane="edgeE_I_4" arrivalPos="879.30" arrivalSpeed="28.79" duration="133.00" routeLength="1794.77" waitingTime="42.00" waitingCount="1" stopTime="0.00" timeLoss="66.08" rerouteNo="0" devices="tripinfo_straightW_47" vType="vehicleW_47" speedFactor="1.13" vaporized=""/>
    <tripinfo id="straightE_61" depart="48.00" departLane="edgeE_O_4" departPos="5.46" departSpeed="0.00" departDelay="0.00" arrival="163.00" arrivalLane="edgeW_I_5" arrivalPos="879.30" arrivalSpeed="28.21" duration="115.00" routeLength="1794.54" waitingTime="24.00" waitingCount="1" stopTime="0.00" timeLoss="44.73" rerouteNo="0" devices="tripinfo_straightE_61" vType="vehicleE_61" speedFactor="1.07" vaporized=""/>
    <tripinfo id="straightW_71" depart="59.00" departLane="edgeW_O_5" departPos="4.85" departSpeed="0.00" departDelay="0.00" arrival="163.00" arrivalLane="edgeE_I_3" arrivalPos="879.30" arrivalSpeed="22.84" duration="104.00" routeLength="1795.15" waitingTime="5.00" waitingCount="1" stopTime="0.00" timeLoss="20.09" rerouteNo="0" devices="tripinfo_straightW_71" vType="vehicleW_71" speedFactor="0.91" vaporized=""/>
    <tripinfo id="straightW_43" depart="28.00" departLane="edgeW_O_3" departPos="4.68" departSpeed="0.00" departDelay="0.00" arrival="164.00" arrivalLane="edgeE_I_3" arrivalPos="879.30" arrivalSpeed="26.01" duration="136.00" routeLength="1795.32" waitingTime="43.00" waitingCount="1" stopTime="0.00" timeLoss="69.47" rerouteNo="0" devices="tripinfo_straightW_43" vType="vehicleW_43" speedFactor="1.13" vaporized=""/>
    <tripinfo id="straightE_45" depart="29.00" departLane="edgeE_O_4" departPos="4.63" departSpeed="0.00" departDelay="0.00" arrival="164.00" arrivalLane="edgeW_I_4" arrivalPos="879.30" arrivalSpeed="23.33" duration="135.00" routeLength="1795.37" waitingTime="35.00" waitingCount="1" stopTime="0.00" timeLoss="49.43" rerouteNo="0" devices="tripinfo_straightE_45" vType="vehicleE_45" speedFactor="0.89" vaporized=""/>
    <tripinfo id="straightE_57" depart="42.00" departLane="edgeE_O_3" departPos="4.50" departSpeed="0.00" departDelay="0.00" arrival="164.00" arrivalLane="edgeW_I_1" arrivalPos="879.30" arrivalSpeed="23.45" duration="122.00" routeLength="1795.50" waitingTime="19.00" waitingCount="3" stopTime="0.00" timeLoss="38.24" rerouteNo="0" devices="tripinfo_straightE_57" vType="vehicleE_57" speedFactor="0.90" vaporized=""/>
    <tripinfo id="straightW_91" depart="79.00" departLane="edgeW_O_4" departPos="4.86" departSpeed="0.00" departDelay="0.00" arrival="164.00" arrivalLane="edgeE_I_5" arrivalPos="879.30" arrivalSpeed="26.75" duration="85.00" routeLength="1795.14" waitingTime="0.00" waitingCount="0" stopTime="0.00" timeLoss="10.33" rerouteNo="0" devices="tripinfo_straightW_91" vType="vehicleW_91" speedFactor="1.02" vaporized=""/>
    <tripinfo id="straightE_82" depart="71.00" departLane="edgeE_O_4" departPos="4.56" departSpeed="0.00" departDelay="0.00" arrival="165.00" arrivalLane="edgeW_I_5" arrivalPos="879.30" arrivalSpeed="26.49" duration="94.00" routeLength="1795.44" waitingTime="0.00" waitingCount="0" stopTime="0.00" timeLoss="17.97" rerouteNo="0" devices="tripinfo_straightE_82" vType="vehicleE_82" speedFactor="1.00" vaporized=""/>
    <tripinfo id="straightE_52" depart="35.00" departLane="edgeE_O_3" departPos="5.08" departSpeed="0.00" departDelay="0.00" arrival="166.00" arrivalLane="edgeW_I_2" arrivalPos="879.30" arrivalSpeed="21.72" duration="131.00" routeLength="1794.92" waitingTime="28.00" waitingCount="1" stopTime="0.00" timeLoss="42.32" rerouteNo="0" devices="tripinfo_straightE_52" vType="vehicleE_52" speedFactor="0.85" vaporized=""/>
    <tripinfo id="straightW_78" depart="65.00" departLane="edgeW_O_5" departPos="5.59" departSpeed="0.00" departDelay="0.00" arrival="166.00" arrivalLane="edgeE_I_4" arrivalPos="879.30" arrivalSpeed="25.18" duration="101.00" routeLength="1794.41" waitingTime="4.00" waitingCount="1" stopTime="0.00" timeLoss="23.51" rerouteNo="0" devices="tripinfo_straightW_78" vType="vehicleW_78" speedFactor="0.98" vaporized=""/>
    <tripinfo id="straightW_34" depart="23.00" departLane="edgeW_O_3" departPos="4.54" departSpeed="0.00" departDelay="0.00" arrival="167.00" arrivalLane="edgeE_I_2" arrivalPos="879.30" arrivalSpeed="22.44" duration="144.00" routeLength="1795.46" waitingTime="41.00" waitingCount="1" stopTime="0.00" timeLoss="54.97" rerouteNo="0" devices="tripinfo_straightW_34" vType="vehicleW_34" speedFactor="0.85" vaporized=""/>
    <tripinfo id="straightW_101" depart="88.00" departLane="edgeW_O_2" departPos="4.54" departSpeed="0.00" departDelay="0.00" arrival="167.00" arrivalLane="edgeE_I_5" arrivalPos="879.30" arrivalSpeed="28.09" duration="79.00" routeLength="1795.46" waitingTime="0.00" waitingCount="0" stopTime="0.00" timeLoss="7.57" rerouteNo="0" devices="tripinfo_straightW_101" vType="vehicleW_101" speedFactor="1.06" vaporized=""/>
    <tripinfo id="straightS_0" depart="0.00" departLane="edgeS_O_2" departPos="4.42" departSpeed="0.00" departDelay="0.00" arrival="172.00" arrivalLane="edgeN_I_1" arrivalPos="979.30" arrivalSpeed="12.29" duration="172.00" routeLength="1995.58" waitingTime="0.00" waitingCount="0" stopTime="0.00" timeLoss="13.32" rerouteNo="0" devices="tripinfo_straightS_0" vType="vehicleS_0" speedFactor="1.05" vaporized=""/>
    <tripinfo id="straightS_7" depart="5.00" departLane="edgeS_O_3" departPos="4.32" departSpeed="0.00" departDelay="0.00" arrival="172.00" arrivalLane="edgeN_I_2" arrivalPos="979.30" arrivalSpeed="12.63" duration="167.00" routeLength="1995.68" waitingTime="0.00" waitingCount="0" stopTime="0.00" timeLoss="12.30" rerouteNo="0" devices="tripinfo_straightS_7" vType="vehicleS_7" speedFactor="1.07" vaporized=""/>
    <tripinfo id="straightS_12" depart="9.00" departLane="edgeS_O_4" departPos="5.58" departSpeed="0.00" departDelay="0.00" arrival="172.00" arrivalLane="edgeN_I_3" arrivalPos="979.30" arrivalSpeed="12.35" duration="163.00" routeLength="1994.42" waitingTime="0.00" waitingCount="0" stopTime="0.00" timeLoss="11.40" rerouteNo="0" devices="tripinfo_straightS_12" vType="vehicleS_12" speedFactor="1.09" vaporized=""/>
    <tripinfo id="straightS_19" depart="15.00" departLane="edgeS_O_2" departPos="4.17" departSpeed="0.00" departDelay="0.00" arrival="174.00" arrivalLane="edgeN_I_1" arrivalPos="979.30" arrivalSpeed="14.51" duration="159.00" routeLength="1995.82" waitingTime="0.00" waitingCount="0" stopTime="0.00" timeLoss="22.90" rerouteNo="0" devices="tripinfo_straightS_19" vType="vehicleS_19" speedFactor="1.22" vaporized=""/>
    <tripinfo id="straightE_92" depart="80.00" departLane="edgeE_O_2" departPos="5.02" departSpeed="0.00" departDelay="0.00" arrival="174.00" arrivalLane="edgeW_I_3" arrivalPos="879.30" arrivalSpeed="24.60" duration="94.00" routeLength="1794.97" waitingTime="0.00" waitingCount="0" stopTime="0.00" timeLoss="14.39" rerouteNo="0" devices="tripinfo_straightE_92" vType="vehicleE_92" speedFactor="0.95" vaporized=""/>
    <tripinfo id="straightE_100" depart="87.00" departLane="edgeE_O_2" departPos="4.52" departSpeed="0.00" departDelay="0.00" arrival="174.00" arrivalLane="edgeW_I_5" arrivalPos="879.30" arrivalSpeed="25.76" duration="87.00" routeLength="1795.48" waitingTime="0.00" waitingCount="0" stopTime="0.00" timeLoss="10.19" rerouteNo="0" devices="tripinfo_straightE_100" vType="vehicleE_100" speedFactor="0.99" vaporized=""/>
    <tripinfo id="straightE_80" depart="67.00" departLane="edgeE_O_2" departPos="5.12" departSpeed="0.00" departDelay="0.00" arrival="175.00" arrivalLane="edgeW_I_1" arrivalPos="879.30" arrivalSpeed="21.63" duration="108.00" routeLength="1794.88" waitingTime="0.00" waitingCount="0" stopTime="0.00" timeLoss="16.42" rerouteNo="0" devices="tripinfo_straightE_80" vType="vehicleE_80" speedFactor="0.83" vaporized=""/>
    <tripinfo id="straightW_104" depart="93.00" departLane="edgeW_O_5" departPos="4.62" departSpeed="0.00" departDelay="2.00" arrival="176.00" arrivalLane="edgeE_I_1" arrivalPos="879.30" arrivalSpeed="25.44" duration="83.00" routeLength="1795.38" waitingTime="0.00" waitingCount="0" stopTime="0.00" timeLoss="6.51" rerouteNo="0" devices="tripinfo_straightW_104" vType="vehicleW_104" speedFactor="0.98" vaporized=""/>
    <tripinfo id="uturnE_64" depart="49.00" departLane="edgeE_O_5" departPos="4.12" departSpeed="0.00" departDelay="0.00" arrival="177.00" arrivalLane="edgeE_I_3" arrivalPos="879.30" arrivalSpeed="23.72" duration="128.00" routeLength="1759.15" waitingTime="22.00" waitingCount="2" stopTime="0.00" timeLoss="46.23" rerouteNo="0" devices="tripinfo_uturnE_64" vType="vehicleE_64" speedFactor="0.91" vaporized=""/>
    <tripinfo id="straightE_103" depart="90.00" departLane="edgeE_O_5" departPos="4.80" departSpeed="0.00" departDelay="0.00" arrival="177.00" arrivalLane="edgeW_I_5" arrivalPos="879.30" arrivalSpeed="26.72" duration="87.00" routeLength="1795.20" waitingTime="0.00" waitingCount="0" stopTime="0.00" timeLoss="12.13" rerouteNo="0" devices="tripinfo_straightE_103" vType="vehicleE_103" speedFactor="1.01" vaporized=""/>
    <tripinfo id="straightE_107" depart="94.00" departLane="edgeE_O_3" departPos="4.41" departSpeed="0.00" departDelay="0.00" arrival="178.00" arrivalLane="edgeW_I_1" arrivalPos="879.30" arrivalSpeed="25.82" duration="84.00" routeLength="1795.59" waitingTime="0.00" waitingCount="0" stopTime="0.00" timeLoss="7.25" rerouteNo="0" devices="tripinfo_straightE_107" vType="vehicleE_107" speedFactor="0.98" vaporized=""/>
    <tripinfo id="straightN_23" depart="18.00" departLane="edgeN_O_2" departPos="4.80" departSpeed="0.00" departDelay="0.00" arrival="180.00" arrivalLane="edgeS_I_1" arrivalPos="979.30" arrivalSpeed="12.34" duration="162.00" routeLength="1995.19" waitingTime="0.00" waitingCount="0" stopTime="0.00" timeLoss="12.19" rerouteNo="0" devices="tripinfo_straightN_23" vType="vehicleN_23" speedFactor="1.11" vaporized=""/>
    <tripinfo id="uturnE_96" depart="85.00" departLane="edgeE_O_5" departPos="4.59" departSpeed="0.00" departDelay="0.00" arrival="180.00" arrivalLane="edgeE_I_5" arrivalPos="879.30" arrivalSpeed="27.62" duration="95.00" routeLength="1758.68" waitingTime="1.00" waitingCount="1" stopTime="0.00" timeLoss="22.57" rerouteNo="0" devices="tripinfo_uturnE_96" vType="vehicleE_96" speedFactor="1.05" vaporized=""/>
    <tripinfo id="straightE_108" depart="96.00" departLane="edgeE_O_4" departPos="5.26" departSpeed="0.00" departDelay="0.00" arrival="181.00" arrivalLane="edgeW_I_4" arrivalPos="879.30" arrivalSpeed="26.07" duration="85.00" routeLength="1794.74" waitingTime="0.00" waitingCount="0" stopTime="0.00" timeLoss="8.29" rerouteNo="0" devices="tripinfo_straightE_108" vType="vehicleE_108" speedFactor="0.99" vaporized=""/>
    <tripinfo id="uturnS_10" depart="9.00" departLane="edgeS_O_5" departPos="4.88" departSpeed="0.00" departDelay="1.00" arrival="184.00" arrivalLane="edgeS_I_1" arrivalPos="979.30" arrivalSpeed="12.09" duration="175.00" routeLength="1958.40" waitingTime="1.00" waitingCount="1" stopTime="0.00" timeLoss="17.70" rerouteNo="0" devices="tripinfo_uturnS_10" vType="vehicleS_10" speedFactor="1.04" vaporized=""/>
    <tripinfo id="rightE_69" depart="57.00" departLane="edgeE_O_1" departPos="4.51" departSpeed="0.00" departDelay="0.00" arrival="196.00" arrivalLane="edgeN_I_1" arrivalPos="979.30" arrivalSpeed="13.86" duration="139.00" routeLength="1864.25" waitingTime="19.00" waitingCount="1" stopTime="0.00" timeLoss="33.62" rerouteNo="0" devices="tripinfo_rightE_69" vType="vehicleE_69" speedFactor="1.15" vaporized=""/>
    <tripinfo id="rightN_36" depart="25.00" departLane="edgeN_O_1" departPos="4.14" departSpeed="0.00" departDelay="0.00" arrival="197.00" arrivalLane="edgeW_I_2" arrivalPos="879.30" arrivalSpeed="30.66" duration="172.00" routeLength="1864.62" waitingTime="48.00" waitingCount="1" stopTime="0.00" timeLoss="69.13" rerouteNo="0" devices="tripinfo_rightN_36" vType="vehicleN_36" speedFactor="1.16" vaporized=""/>
    <tripinfo id="rightS_37" depart="25.00" departLane="edgeS_O_2" departPos="5.09" departSpeed="0.00" departDelay="0.00" arrival="201.00" arrivalLane="edgeE_I_1" arrivalPos="879.30" arrivalSpeed="27.79" duration="176.00" routeLength="1863.67" waitingTime="45.00" waitingCount="1" stopTime="0.00" timeLoss="61.99" rerouteNo="0" devices="tripinfo_rightS_37" vType="vehicleS_37" speedFactor="1.04" vaporized=""/>
    <tripinfo id="rightS_42" depart="28.00" departLane="edgeS_O_2" departPos="5.35" departSpeed="0.00" departDelay="0.00" arrival="202.00" arrivalLane="edgeE_I_3" arrivalPos="879.30" arrivalSpeed="26.61" duration="174.00" routeLength="1866.09" waitingTime="38.00" waitingCount="2" stopTime="0.00" timeLoss="59.70" rerouteNo="0" devices="tripinfo_rightS_42" vType="vehicleS_42" speedFactor="1.04" vaporized=""/>
    <tripinfo id="rightN_65" depart="51.00" departLane="edgeN_O_1" departPos="4.81" departSpeed="0.00" departDelay="0.00" arrival="205.00" arrivalLane="edgeW_I_1" arrivalPos="879.30" arrivalSpeed="25.61" duration="154.00" routeLength="1863.95" waitingTime="16.00" waitingCount="1" stopTime="0.00" timeLoss="33.66" rerouteNo="0" devices="tripinfo_rightN_65" vType="vehicleN_65" speedFactor="0.99" vaporized=""/>
    <tripinfo id="rightE_38" depart="25.00" departLane="edgeE_O_1" departPos="5.17" departSpeed="0.00" departDelay="0.00" arrival="208.00" arrivalLane="edgeN_I_1" arrivalPos="979.30" arrivalSpeed="12.01" duration="183.00" routeLength="1863.59" waitingTime="41.00" waitingCount="1" stopTime="0.00" timeLoss="57.25" rerouteNo="0" devices="tripinfo_rightE_38" vType="vehicleE_38" speedFactor="0.95" vaporized=""/>
    <tripinfo id="rightS_68" depart="57.00" departLane="edgeS_O_2" departPos="4.93" departSpeed="0.00" departDelay="0.00" arrival="208.00" arrivalLane="edgeE_I_3" arrivalPos="879.30" arrivalSpeed="28.72" duration="151.00" routeLength="1863.83" waitingTime="22.00" waitingCount="1" stopTime="0.00" timeLoss="44.74" rerouteNo="0" devices="tripinfo_rightS_68" vType="vehicleS_68" speedFactor="1.12" vaporized=""/>
    <tripinfo id="rightS_44" depart="30.00" departLane="edgeS_O_2" departPos="4.43" departSpeed="0.00" departDelay="1.00" arrival="210.00" arrivalLane="edgeE_I_1" arrivalPos="879.30" arrivalSpeed="24.06" duration="180.00" routeLength="1864.33" waitingTime="30.00" waitingCount="1" stopTime="0.00" timeLoss="50.30" rerouteNo="0" devices="tripinfo_rightS_44" vType="vehicleS_44" speedFactor="0.92" vaporized=""/>
    <tripinfo id="rightS_55" depart="38.00" departLane="edgeS_O_1" departPos="5.18" departSpeed="0.00" departDelay="0.00" arrival="212.00" arrivalLane="edgeE_I_2" arrivalPos="879.30" arrivalSpeed="24.44" duration="174.00" routeLength="1863.58" waitingTime="22.00" waitingCount="1" stopTime="0.00" timeLoss="44.36" rerouteNo="0" devices="tripinfo_rightS_55" vType="vehicleS_55" speedFactor="0.92" vaporized=""/>
    <tripinfo id="rightS_77" depart="65.00" departLane="edgeS_O_1" departPos="4.24" departSpeed="0.00" departDelay="0.00" arrival="214.00" arrivalLane="edgeE_I_2" arrivalPos="879.30" arrivalSpeed="26.73" duration="149.00" routeLength="1864.52" waitingTime="10.00" waitingCount="1" stopTime="0.00" timeLoss="30.77" rerouteNo="0" devices="tripinfo_rightS_77" vType="vehicleS_77" speedFactor="1.01" vaporized=""/>
    <tripinfo id="leftS_39" depart="26.00" departLane="edgeS_O_5" departPos="4.56" departSpeed="0.00" departDelay="0.00" arrival="219.00" arrivalLane="edgeW_I_4" arrivalPos="879.30" arrivalSpeed="24.30" duration="193.00" routeLength="1890.01" waitingTime="47.00" waitingCount="2" stopTime="0.00" timeLoss="70.21" rerouteNo="0" devices="tripinfo_leftS_39" vType="vehicleS_39" speedFactor="0.97" vaporized=""/>
    <tripinfo id="leftN_29" depart="22.00" departLane="edgeN_O_5" departPos="5.45" departSpeed="0.00" departDelay="2.00" arrival="220.00" arrivalLane="edgeE_I_5" arrivalPos="879.30" arrivalSpeed="29.35" duration="198.00" routeLength="1889.12" waitingTime="72.00" waitingCount="2" stopTime="0.00" timeLoss="90.19" rerouteNo="0" devices="tripinfo_leftN_29" vType="vehicleN_29" speedFactor="1.11" vaporized=""/>
    <tripinfo id="leftS_63" depart="49.00" departLane="edgeS_O_5" departPos="4.09" departSpeed="0.00" departDelay="0.00" arrival="220.00" arrivalLane="edgeW_I_5" arrivalPos="879.30" arrivalSpeed="26.55" duration="171.00" routeLength="1890.48" waitingTime="35.00" waitingCount="2" stopTime="0.00" timeLoss="55.81" rerouteNo="0" devices="tripinfo_leftS_63" vType="vehicleS_63" speedFactor="1.04" vaporized=""/>
    <tripinfo id="rightS_98" depart="86.00" departLane="edgeS_O_1" departPos="4.49" departSpeed="0.00" departDelay="0.00" arrival="223.00" arrivalLane="edgeE_I_2" arrivalPos="879.30" arrivalSpeed="27.46" duration="137.00" routeLength="1864.27" waitingTime="7.00" waitingCount="1" stopTime="0.00" timeLoss="25.83" rerouteNo="0" devices="tripinfo_rightS_98" vType="vehicleS_98" speedFactor="1.08" vaporized=""/>
    <tripinfo id="rightS_76" depart="65.00" departLane="edgeS_O_2" departPos="4.85" departSpeed="0.00" departDelay="1.00" arrival="224.00" arrivalLane="edgeE_I_1" arrivalPos="879.30" arrivalSpeed="23.33" duration="159.00" routeLength="1866.59" waitingTime="9.00" waitingCount="3" stopTime="0.00" timeLoss="32.27" rerouteNo="0" devices="tripinfo_rightS_76" vType="vehicleS_76" speedFactor="0.94" vaporized=""/>
    <tripinfo id="leftN_13" depart="10.00" departLane="edgeN_O_5" departPos="4.07" departSpeed="0.00" departDelay="0.00" arrival="227.00" arrivalLane="edgeE_I_4" arrivalPos="879.30" arrivalSpeed="25.26" duration="217.00" routeLength="1890.50" waitingTime="69.00" waitingCount="2" stopTime="0.00" timeLoss="90.47" rerouteNo="0" devices="tripinfo_leftN_13" vType="vehicleN_13" speedFactor="0.95" vaporized=""/>