<?xml version="1.0" encoding="UTF-8"?>

<!-- generated on 2021-10-23 05:39:53 by Eclipse SUMO sumo Version 1.10.0
<configuration xmlns:xsi="http://www.w3.org/2001/XMLSchema-instance" xsi:noNamespaceSchemaLocation="http://sumo.dlr.de/xsd/sumoConfiguration.xsd">

    <input>
        <net-file value="data0/cross.net.xml"/>
        <route-files value="data0/cross.rou.xml"/>
        <additional-files value="data0/cross.tls.xml"/>
    </input>

    <output>
        <tripinfo-output value="data0/tripinfo.xml"/>
        <tripinfo-output.write-unfinished value="true"/>
    </output>

    <time>
        <begin value="0"/>
        <step-length value="1"/>
    </time>

    <processing>
        <threads value="5"/>
        <time-to-teleport value="-1"/>
    </processing>

    <report>
        <verbose value="true"/>
        <no-warnings value="true"/>
        <no-step-log value="true"/>
    </report>

    <traci_server>
        <remote-port value="49266"/>
    </traci_server>

    <gui_only>
        <gui-settings-file value="data0/viewsettings.xml"/>
        <tracker-interval value="1"/>
    </gui_only>

</configuration>
-->

<tripinfos xmlns:xsi="http://www.w3.org/2001/XMLSchema-instance" xsi:noNamespaceSchemaLocation="http://sumo.dlr.de/xsd/tripinfo_file.xsd">
    <tripinfo id="uturnE_12" depart="6.00" departLane="edgeE_O_6" departPos="4.31" departSpeed="0.00" departDelay="0.00" arrival="117.00" arrivalLane="edgeE_I_4" arrivalPos="982.50" arrivalSpeed="23.71" duration="111.00" routeLength="1965.37" waitingTime="0.00" waitingCount="0" stopTime="0.00" timeLoss="12.34" rerouteNo="0" devices="tripinfo_uturnE_12" vType="vehicleE_12" speedFactor="1.06" vaporized=""/>
    <tripinfo id="rightW_37" depart="20.00" departLane="edgeW_O_1" departPos="5.50" departSpeed="0.00" departDelay="0.00" arrival="119.00" arrivalLane="edgeS_I_1" arrivalPos="676.10" arrivalSpeed="24.87" duration="99.00" routeLength="1563.26" waitingTime="7.00" waitingCount="1" stopTime="0.00" timeLoss="23.11" rerouteNo="0" devices="tripinfo_rightW_37" vType="vehicleW_37" speedFactor="1.13" vaporized=""/>
    <tripinfo id="straightE_42" depart="26.00" departLane="edgeE_O_5" departPos="5.11" departSpeed="0.00" departDelay="4.00" arrival="120.00" arrivalLane="edgeW_I_3" arrivalPos="882.50" arrivalSpeed="26.63" duration="94.00" routeLength="1894.89" waitingTime="0.00" waitingCount="0" stopTime="0.00" timeLoss="8.08" rerouteNo="0" devices="tripinfo_straightE_42" vType="vehicleE_42" speedFactor="1.17" vaporized=""/>
    <tripinfo id="straightE_28" depart="15.00" departLane="edgeE_O_2" departPos="4.95" departSpeed="0.00" departDelay="0.00" arrival="121.00" arrivalLane="edgeW_I_2" arrivalPos="882.50" arrivalSpeed="26.39" duration="106.00" routeLength="1895.05" waitingTime="0.00" waitingCount="0" stopTime="0.00" timeLoss="17.91" rerouteNo="0" devices="tripinfo_straightE_28" vType="vehicleE_28" speedFactor="1.15" vaporized=""/>
    <tripinfo id="straightW_25" depart="14.00" departLane="edgeW_O_1" departPos="5.25" departSpeed="0.00" departDelay="0.00" arrival="124.00" arrivalLane="edgeE_I_3" arrivalPos="982.50" arrivalSpeed="25.97" duration="110.00" routeLength="1894.74" waitingTime="4.00" waitingCount="1" stopTime="0.00" timeLoss="22.79" rerouteNo="0" devices="tripinfo_straightW_25" vType="vehicleW_25" speedFactor="1.13" vaporized=""/>
    <tripinfo id="straightE_19" depart="11.00" departLane="edgeE_O_5" departPos="5.60" departSpeed="0.00" departDelay="0.00" arrival="125.00" arrivalLane="edgeW_I_1" arrivalPos="882.50" arrivalSpeed="23.82" duration="114.00" routeLength="1894.39" waitingTime="1.00" waitingCount="1" stopTime="0.00" timeLoss="18.16" rerouteNo="0" devices="tripinfo_straightE_19" vType="vehicleE_19" speedFactor="1.06" vaporized=""/>
    <tripinfo id="rightW_43" depart="25.00" departLane="edgeW_O_1" departPos="5.19" departSpeed="0.00" departDelay="2.00" arrival="125.00" arrivalLane="edgeS_I_1" arrivalPos="676.10" arrivalSpeed="23.27" duration="100.00" routeLength="1563.57" waitingTime="0.00" waitingCount="0" stopTime="0.00" timeLoss="16.66" rerouteNo="0" devices="tripinfo_rightW_43" vType="vehicleW_43" speedFactor="1.02" vaporized=""/>
    <tripinfo id="straightE_5" depart="2.00" departLane="edgeE_O_2" departPos="5.09" departSpeed="0.00" departDelay="0.00" arrival="126.00" arrivalLane="edgeW_I_1" arrivalPos="882.50" arrivalSpeed="20.89" duration="124.00" routeLength="1894.91" waitingTime="4.00" waitingCount="1" stopTime="0.00" timeLoss="18.72" rerouteNo="0" devices="tripinfo_straightE_5" vType="vehicleE_5" speedFactor="0.96" vaporized=""/>
    <tripinfo id="straightE_26" depart="18.00" departLane="edgeE_O_5" departPos="5.37" departSpeed="0.00" departDelay="4.00" arrival="126.00" arrivalLane="edgeW_I_3" arrivalPos="882.50" arrivalSpeed="23.26" duration="108.00" routeLength="1894.63" waitingTime="0.00" waitingCount="0" stopTime="0.00" timeLoss="8.64" rerouteNo="0" devices="tripinfo_straightE_26" vType="vehicleE_26" speedFactor="1.01" vaporized=""/>
    <tripinfo id="straightW_16" depart="11.00" departLane="edgeW_O_3" departPos="5.44" departSpeed="0.00" departDelay="2.00" arrival="127.00" arrivalLane="edgeE_I_2" arrivalPos="982.50" arrivalSpeed="24.28" duration="116.00" routeLength="1894.56" waitingTime="8.00" waitingCount="1" stopTime="0.00" timeLoss="23.06" rerouteNo="0" devices="tripinfo_straightW_16" vType="vehicleW_16" speedFactor="1.07" vaporized=""/>
    <tripinfo id="straightE_21" depart="12.00" departLane="edgeE_O_1" departPos="4.81" departSpeed="0.00" departDelay="0.00" arrival="127.00" arrivalLane="edgeW_I_2" arrivalPos="882.50" arrivalSpeed="23.36" duration="115.00" routeLength="1895.19" waitingTime="1.00" waitingCount="1" stopTime="0.00" timeLoss="18.94" rerouteNo="0" devices="tripinfo_straightE_21" vType="vehicleE_21" speedFactor="1.05" vaporized=""/>
    <tripinfo id="straightW_4" depart="2.00" departLane="edgeW_O_4" departPos="4.15" departSpeed="0.00" departDelay="0.00" arrival="128.00" arrivalLane="edgeE_I_1" arrivalPos="982.50" arrivalSpeed="23.15" duration="126.00" routeLength="1895.85" waitingTime="16.00" waitingCount="1" stopTime="0.00" timeLoss="30.25" rerouteNo="0" devices="tripinfo_straightW_4" vType="vehicleW_4" speedFactor="1.04" vaporized=""/>
    <tripinfo id="straightW_45" depart="24.00" departLane="edgeW_O_4" departPos="4.25" departSpeed="0.00" departDelay="0.00" arrival="128.00" arrivalLane="edgeE_I_4" arrivalPos="982.50" arrivalSpeed="23.90" duration="104.00" routeLength="1895.75" waitingTime="0.00" waitingCount="0" stopTime="0.00" timeLoss="10.16" rerouteNo="0" devices="tripinfo_straightW_45" vType="vehicleW_45" speedFactor="1.05" vaporized=""/>
    <tripinfo id="straightW_1" depart="0.00" departLane="edgeW_O_1" departPos="4.13" departSpeed="0.00" departDelay="0.00" arrival="130.00" arrivalLane="edgeE_I_1" arrivalPos="982.50" arrivalSpeed="23.38" duration="130.00" routeLength="1895.87" waitingTime="17.00" waitingCount="1" stopTime="0.00" timeLoss="31.64" rerouteNo="0" devices="tripinfo_straightW_1" vType="vehicleW_1" speedFactor="1.01" vaporized=""/>
    <tripinfo id="straightW_11" depart="6.00" departLane="edgeW_O_4" departPos="4.51" departSpeed="0.00" departDelay="0.00" arrival="131.00" arrivalLane="edgeE_I_1" arrivalPos="982.50" arrivalSpeed="21.80" duration="125.00" routeLength="1895.49" waitingTime="11.00" waitingCount="1" stopTime="0.00" timeLoss="25.99" rerouteNo="0" devices="tripinfo_straightW_11" vType="vehicleW_11" speedFactor="1.00" vaporized=""/>
    <tripinfo id="straightE_23" depart="14.00" departLane="edgeE_O_5" departPos="5.16" departSpeed="0.00" departDelay="1.00" arrival="131.00" arrivalLane="edgeW_I_1" arrivalPos="882.50" arrivalSpeed="21.06" duration="117.00" routeLength="1894.84" waitingTime="0.00" waitingCount="0" stopTime="0.00" timeLoss="9.31" rerouteNo="0" devices="tripinfo_straightE_23" vType="vehicleE_23" speedFactor="0.93" vaporized=""/>
    <tripinfo id="straightE_38" depart="23.00" departLane="edgeE_O_5" departPos="4.57" departSpeed="0.00" departDelay="3.00" arrival="131.00" arrivalLane="edgeW_I_3" arrivalPos="882.50" arrivalSpeed="21.76" duration="108.00" routeLength="1895.43" waitingTime="0.00" waitingCount="0" stopTime="0.00" timeLoss="9.12" rerouteNo="0" devices="tripinfo_straightE_38" vType="vehicleE_38" speedFactor="1.02" vaporized=""/>
    <tripinfo id="straightE_49" depart="26.00" departLane="edgeE_O_2" departPos="5.36" departSpeed="0.00" departDelay="0.00" arrival="132.00" arrivalLane="edgeW_I_2" arrivalPos="882.50" arrivalSpeed="24.91" duration="106.00" routeLength="1894.64" waitingTime="0.00" waitingCount="0" stopTime="0.00" timeLoss="17.75" rerouteNo="0" devices="tripinfo_straightE_49" vType="vehicleE_49" speedFactor="1.14" vaporized=""/>
    <tripinfo id="straightE_53" depart="29.00" departLane="edgeE_O_5" departPos="4.39" departSpeed="0.00" departDelay="1.00" arrival="133.00" arrivalLane="edgeW_I_3" arrivalPos="882.50" arrivalSpeed="23.78" duration="104.00" routeLength="1895.61" waitingTime="0.00" waitingCount="0" stopTime="0.00" timeLoss="7.67" rerouteNo="0" devices="tripinfo_straightE_53" vType="vehicleE_53" speedFactor="1.04" vaporized=""/>
    <tripinfo id="straightW_2" depart="1.00" departLane="edgeW_O_2" departPos="4.53" departSpeed="0.00" departDelay="0.00" arrival="134.00" arrivalLane="edgeE_I_1" arrivalPos="982.50" arrivalSpeed="21.49" duration="133.00" routeLength="1895.47" waitingTime="14.00" waitingCount="1" stopTime="0.00" timeLoss="29.02" rerouteNo="0" devices="tripinfo_straightW_2" vType="vehicleW_2" speedFactor="0.95" vaporized=""/>
    <tripinfo id="straightE_17" depart="10.00" departLane="edgeE_O_3" departPos="4.12" departSpeed="0.00" departDelay="0.00" arrival="134.00" arrivalLane="edgeW_I_1" arrivalPos="882.50" arrivalSpeed="20.20" duration="124.00" routeLength="1895.88" waitingTime="0.00" waitingCount="0" stopTime="0.00" timeLoss="10.68" rerouteNo="0" devices="tripinfo_straightE_17" vType="vehicleE_17" speedFactor="0.89" vaporized=""/>
    <tripinfo id="straightW_31" depart="17.00" departLane="edgeW_O_3" departPos="5.64" departSpeed="0.00" departDelay="0.00" arrival="136.00" arrivalLane="edgeE_I_4" arrivalPos="982.50" arrivalSpeed="21.39" duration="119.00" routeLength="1894.36" waitingTime="0.00" waitingCount="0" stopTime="0.00" timeLoss="11.42" rerouteNo="0" devices="tripinfo_straightW_31" vType="vehicleW_31" speedFactor="0.92" vaporized=""/>
    <tripinfo id="straightW_46" depart="25.00" departLane="edgeW_O_2" departPos="5.37" departSpeed="0.00" departDelay="0.00" arrival="136.00" arrivalLane="edgeE_I_5" arrivalPos="982.50" arrivalSpeed="22.35" duration="111.00" routeLength="1894.63" waitingTime="0.00" waitingCount="0" stopTime="0.00" timeLoss="10.01" rerouteNo="0" devices="tripinfo_straightW_46" vType="vehicleW_46" speedFactor="0.98" vaporized=""/>
    <tripinfo id="straightE_62" depart="36.00" departLane="edgeE_O_1" departPos="5.20" departSpeed="0.00" departDelay="2.00" arrival="136.00" arrivalLane="edgeW_I_3" arrivalPos="882.50" arrivalSpeed="24.03" duration="100.00" routeLength="1894.80" waitingTime="0.00" waitingCount="0" stopTime="0.00" timeLoss="7.95" rerouteNo="0" devices="tripinfo_straightE_62" vType="vehicleE_62" speedFactor="1.10" vaporized=""/>
    <tripinfo id="straightW_15" depart="8.00" departLane="edgeW_O_3" departPos="4.34" departSpeed="0.00" departDelay="0.00" arrival="137.00" arrivalLane="edgeE_I_3" arrivalPos="982.50" arrivalSpeed="20.98" duration="129.00" routeLength="1895.66" waitingTime="4.00" waitingCount="1" stopTime="0.00" timeLoss="22.97" rerouteNo="0" devices="tripinfo_straightW_15" vType="vehicleW_15" speedFactor="0.94" vaporized=""/>
    <tripinfo id="straightW_41" depart="22.00" departLane="edgeW_O_1" departPos="4.17" departSpeed="0.00" departDelay="0.00" arrival="137.00" arrivalLane="edgeE_I_2" arrivalPos="982.50" arrivalSpeed="21.11" duration="115.00" routeLength="1895.83" waitingTime="0.00" waitingCount="0" stopTime="0.00" timeLoss="19.32" rerouteNo="0" devices="tripinfo_straightW_41" vType="vehicleW_41" speedFactor="1.04" vaporized=""/>
    <tripinfo id="straightW_7" depart="3.00" departLane="edgeW_O_3" departPos="5.42" departSpeed="0.00" departDelay="0.00" arrival="138.00" arrivalLane="edgeE_I_1" arrivalPos="982.50" arrivalSpeed="21.29" duration="135.00" routeLength="1894.58" waitingTime="11.00" waitingCount="1" stopTime="0.00" timeLoss="27.83" rerouteNo="0" devices="tripinfo_straightW_7" vType="vehicleW_7" speedFactor="0.93" vaporized=""/>
    <tripinfo id="straightW_52" depart="28.00" departLane="edgeW_O_5" departPos="5.25" departSpeed="0.00" departDelay="0.00" arrival="139.00" arrivalLane="edgeE_I_1" arrivalPos="982.50" arrivalSpeed="21.92" duration="111.00" routeLength="1894.75" waitingTime="0.00" waitingCount="0" stopTime="0.00" timeLoss="8.31" rerouteNo="0" devices="tripinfo_straightW_52" vType="vehicleW_52" speedFactor="0.96" vaporized=""/>
    <tripinfo id="straightE_59" depart="33.00" departLane="edgeE_O_1" departPos="4.12" departSpeed="0.00" departDelay="0.00" arrival="139.00" arrivalLane="edgeW_I_1" arrivalPos="882.50" arrivalSpeed="24.04" duration="106.00" routeLength="1895.88" waitingTime="0.00" waitingCount="0" stopTime="0.00" timeLoss="9.18" rerouteNo="0" devices="tripinfo_straightE_59" vType="vehicleE_59" speedFactor="1.04" vaporized=""/>
    <tripinfo id="straightW_65" depart="37.00" departLane="edgeW_O_5" departPos="5.23" departSpeed="0.00" departDelay="0.00" arrival="141.00" arrivalLane="edgeE_I_3" arrivalPos="982.50" arrivalSpeed="23.53" duration="104.00" routeLength="1894.77" waitingTime="0.00" waitingCount="0" stopTime="0.00" timeLoss="7.69" rerouteNo="0" devices="tripinfo_straightW_65" vType="vehicleW_65" speedFactor="1.03" vaporized=""/>
    <tripinfo id="straightE_70" depart="39.00" departLane="edgeE_O_2" departPos="4.71" departSpeed="0.00" departDelay="0.00" arrival="142.00" arrivalLane="edgeW_I_2" arrivalPos="882.50" arrivalSpeed="23.43" duration="103.00" routeLength="1895.29" waitingTime="0.00" waitingCount="0" stopTime="0.00" timeLoss="7.22" rerouteNo="0" devices="tripinfo_straightE_70" vType="vehicleE_70" speedFactor="1.05" vaporized=""/>
    <tripinfo id="straightW_76" depart="45.00" departLane="edgeW_O_2" departPos="5.06" departSpeed="0.00" departDelay="2.00" arrival="144.00" arrivalLane="edgeE_I_3" arrivalPos="982.50" arrivalSpeed="25.14" duration="99.00" routeLength="1894.94" waitingTime="0.00" waitingCount="0" stopTime="0.00" timeLoss="12.28" rerouteNo="0" devices="tripinfo_straightW_76" vType="vehicleW_76" speedFactor="1.14" vaporized=""/>
    <tripinfo id="straightW_54" depart="30.00" departLane="edgeW_O_3" departPos="4.61" departSpeed="0.00" departDelay="0.00" arrival="145.00" arrivalLane="edgeE_I_1" arrivalPos="982.50" arrivalSpeed="21.00" duration="115.00" routeLength="1895.38" waitingTime="0.00" waitingCount="0" stopTime="0.00" timeLoss="8.12" rerouteNo="0" devices="tripinfo_straightW_54" vType="vehicleW_54" speedFactor="0.93" vaporized=""/>
    <tripinfo id="straightE_56" depart="32.00" departLane="edgeE_O_4" departPos="4.77" departSpeed="0.00" departDelay="0.00" arrival="145.00" arrivalLane="edgeW_I_2" arrivalPos="882.50" arrivalSpeed="21.78" duration="113.00" routeLength="1895.22" waitingTime="0.00" waitingCount="0" stopTime="0.00" timeLoss="8.92" rerouteNo="0" devices="tripinfo_straightE_56" vType="vehicleE_56" speedFactor="0.97" vaporized=""/>
    <tripinfo id="straightW_89" depart="49.00" departLane="edgeW_O_2" departPos="5.24" departSpeed="0.00" departDelay="0.00" arrival="145.00" arrivalLane="edgeE_I_4" arrivalPos="982.50" arrivalSpeed="26.70" duration="96.00" routeLength="1894.76" waitingTime="0.00" waitingCount="0" stopTime="0.00" timeLoss="11.49" rerouteNo="0" devices="tripinfo_straightW_89" vType="vehicleW_89" speedFactor="1.17" vaporized=""/>
    <tripinfo id="straightE_32" depart="21.00" departLane="edgeE_O_5" departPos="4.89" departSpeed="0.00" departDelay="4.00" arrival="146.00" arrivalLane="edgeW_I_1" arrivalPos="882.50" arrivalSpeed="20.25" duration="125.00" routeLength="1895.11" waitingTime="0.00" waitingCount="0" stopTime="0.00" timeLoss="9.42" rerouteNo="0" devices="tripinfo_straightE_32" vType="vehicleE_32" speedFactor="0.87" vaporized=""/>
    <tripinfo id="straightE_99" depart="53.00" departLane="edgeE_O_1" departPos="4.55" departSpeed="0.00" departDelay="0.00" arrival="146.00" arrivalLane="edgeW_I_4" arrivalPos="882.50" arrivalSpeed="27.54" duration="93.00" routeLength="1895.45" waitingTime="0.00" waitingCount="0" stopTime="0.00" timeLoss="9.29" rerouteNo="0" devices="tripinfo_straightE_99" vType="vehicleE_99" speedFactor="1.20" vaporized=""/>
    <tripinfo id="straightW_78" depart="44.00" departLane="edgeW_O_3" departPos="5.42" departSpeed="0.00" departDelay="0.00" arrival="148.00" arrivalLane="edgeE_I_1" arrivalPos="982.50" arrivalSpeed="23.67" duration="104.00" routeLength="1894.58" waitingTime="0.00" waitingCount="0" stopTime="0.00" timeLoss="7.71" rerouteNo="0" devices="tripinfo_straightW_78" vType="vehicleW_78" speedFactor="1.03" vaporized=""/>
    <tripinfo id="straightE_84" depart="47.00" departLane="edgeE_O_3" departPos="4.61" departSpeed="0.00" departDelay="0.00" arrival="149.00" arrivalLane="edgeW_I_3" arrivalPos="882.50" arrivalSpeed="23.79" duration="102.00" routeLength="1895.39" waitingTime="0.00" waitingCount="0" stopTime="0.00" timeLoss="7.80" rerouteNo="0" devices="tripinfo_straightE_84" vType="vehicleE_84" speedFactor="1.06" vaporized=""/>
    <tripinfo id="straightE_75" depart="42.00" departLane="edgeE_O_5" departPos="4.33" departSpeed="0.00" departDelay="0.00" arrival="150.00" arrivalLane="edgeW_I_2" arrivalPos="882.50" arrivalSpeed="23.09" duration="108.00" routeLength="1895.67" waitingTime="0.00" waitingCount="0" stopTime="0.00" timeLoss="8.32" rerouteNo="0" devices="tripinfo_straightE_75" vType="vehicleE_75" speedFactor="1.01" vaporized=""/>
    <tripinfo id="straightE_81" depart="45.00" departLane="edgeE_O_2" departPos="5.52" departSpeed="0.00" departDelay="0.00" arrival="151.00" arrivalLane="edgeW_I_1" arrivalPos="882.50" arrivalSpeed="23.21" duration="106.00" routeLength="1894.48" waitingTime="0.00" waitingCount="0" stopTime="0.00" timeLoss="8.04" rerouteNo="0" devices="tripinfo_straightE_81" vType="vehicleE_81" speedFactor="1.03" vaporized=""/>
    <tripinfo id="straightW_92" depart="50.00" departLane="edgeW_O_4" departPos="4.17" departSpeed="0.00" departDelay="0.00" arrival="153.00" arrivalLane="edgeE_I_2" arrivalPos="982.50" arrivalSpeed="23.58" duration="103.00" routeLength="1895.83" waitingTime="0.00" waitingCount="0" stopTime="0.00" timeLoss="8.28" rerouteNo="0" devices="tripinfo_straightW_92" vType="vehicleW_92" speedFactor="1.05" vaporized=""/>
    <tripinfo id="straightW_69" depart="39.00" departLane="edgeW_O_2" departPos="4.96" departSpeed="0.00" departDelay="0.00" arrival="155.00" arrivalLane="edgeE_I_1" arrivalPos="982.50" arrivalSpeed="20.17" duration="116.00" routeLength="1895.04" waitingTime="0.00" waitingCount="0" stopTime="0.00" timeLoss="8.88" rerouteNo="0" devices="tripinfo_straightW_69" vType="vehicleW_69" speedFactor="0.92" vaporized=""/>
    <tripinfo id="straightE_90" depart="49.00" departLane="edgeE_O_5" departPos="4.53" departSpeed="0.00" departDelay="0.00" arrival="155.00" arrivalLane="edgeW_I_2" arrivalPos="882.50" arrivalSpeed="22.92" duration="106.00" routeLength="1895.47" waitingTime="0.00" waitingCount="0" stopTime="0.00" timeLoss="9.44" rerouteNo="0" devices="tripinfo_straightE_90" vType="vehicleE_90" speedFactor="1.04" vaporized=""/>
    <tripinfo id="straightW_74" depart="42.00" departLane="edgeW_O_2" departPos="5.62" departSpeed="0.00" departDelay="0.00" arrival="157.00" arrivalLane="edgeE_I_1" arrivalPos="982.50" arrivalSpeed="20.91" duration="115.00" routeLength="1894.38" waitingTime="0.00" waitingCount="0" stopTime="0.00" timeLoss="8.34" rerouteNo="0" devices="tripinfo_straightW_74" vType="vehicleW_74" speedFactor="0.93" vaporized=""/>
    <tripinfo id="straightE_83" depart="48.00" departLane="edgeE_O_2" departPos="5.42" departSpeed="0.00" departDelay="2.00" arrival="158.00" arrivalLane="edgeW_I_2" arrivalPos="882.50" arrivalSpeed="22.45" duration="110.00" routeLength="1894.58" waitingTime="0.00" waitingCount="0" stopTime="0.00" timeLoss="9.32" rerouteNo="0" devices="tripinfo_straightE_83" vType="vehicleE_83" speedFactor="1.00" vaporized=""/>
    <tripinfo id="straightW_98" depart="53.00" departLane="edgeW_O_5" departPos="4.97" departSpeed="0.00" departDelay="0.00" arrival="158.00" arrivalLane="edgeE_I_3" arrivalPos="982.50" arrivalSpeed="22.92" duration="105.00" routeLength="1895.03" waitingTime="0.00" waitingCount="0" stopTime="0.00" timeLoss="7.99" rerouteNo="0" devices="tripinfo_straightW_98" vType="vehicleW_98" speedFactor="1.02" vaporized=""/>
    <tripinfo id="straightW_82" depart="46.00" departLane="edgeW_O_5" departPos="4.95" departSpeed="0.00" departDelay="0.00" arrival="159.00" arrivalLane="edgeE_I_2" arrivalPos="982.50" arrivalSpeed="21.49" duration="113.00" routeLength="1895.05" waitingTime="0.00" waitingCount="0" stopTime="0.00" timeLoss="7.66" rerouteNo="0" devices="tripinfo_straightW_82" vType="vehicleW_82" speedFactor="0.94" vaporized=""/>
    <tripinfo id="straightW_100" depart="55.00" departLane="edgeW_O_1" departPos="5.12" departSpeed="0.00" departDelay="0.00" arrival="159.00" arrivalLane="edgeE_I_4" arrivalPos="982.50" arrivalSpeed="23.92" duration="104.00" routeLength="1894.88" waitingTime="0.00" waitingCount="0" stopTime="0.00" timeLoss="10.06" rerouteNo="0" devices="tripinfo_straightW_100" vType="vehicleW_100" speedFactor="1.05" vaporized=""/>
    <tripinfo id="straightE_71" depart="41.00" departLane="edgeE_O_3" departPos="5.48" departSpeed="0.00" departDelay="0.00" arrival="160.00" arrivalLane="edgeW_I_1" arrivalPos="882.50" arrivalSpeed="19.94" duration="119.00" routeLength="1894.52" waitingTime="0.00" waitingCount="0" stopTime="0.00" timeLoss="8.10" rerouteNo="0" devices="tripinfo_straightE_71" vType="vehicleE_71" speedFactor="0.91" vaporized=""/>
    <tripinfo id="straightW_80" depart="45.00" departLane="edgeW_O_1" departPos="4.63" departSpeed="0.00" departDelay="0.00" arrival="160.00" arrivalLane="edgeE_I_1" arrivalPos="982.50" arrivalSpeed="23.81" duration="115.00" routeLength="1895.37" waitingTime="0.00" waitingCount="0" stopTime="0.00" timeLoss="19.54" rerouteNo="0" devices="tripinfo_straightW_80" vType="vehicleW_80" speedFactor="1.04" vaporized=""/>
    <tripinfo id="straightE_66" depart="37.00" departLane="edgeE_O_4" departPos="4.70" departSpeed="0.00" departDelay="0.00" arrival="163.00" arrivalLane="edgeW_I_1" arrivalPos="882.50" arrivalSpeed="18.65" duration="126.00" routeLength="1895.30" waitingTime="0.00" waitingCount="0" stopTime="0.00" timeLoss="8.51" rerouteNo="0" devices="tripinfo_straightE_66" vType="vehicleE_66" speedFactor="0.85" vaporized=""/>
    <tripinfo id="straightE_101" depart="55.00" departLane="edgeE_O_4" departPos="5.04" departSpeed="0.00" departDelay="0.00" arrival="167.00" arrivalLane="edgeW_I_2" arrivalPos="882.50" arrivalSpeed="22.45" duration="112.00" routeLength="1894.96" waitingTime="0.00" waitingCount="0" stopTime="0.00" timeLoss="8.45" rerouteNo="0" devices="tripinfo_straightE_101" vType="vehicleE_101" speedFactor="0.98" vaporized=""/>
    <tripinfo id="straightW_115" depart="64.00" departLane="edgeW_O_3" departPos="4.62" departSpeed="0.00" departDelay="0.00" arrival="167.00" arrivalLane="edgeE_I_1" arrivalPos="982.50" arrivalSpeed="24.02" duration="103.00" routeLength="1895.38" waitingTime="0.00" waitingCount="0" stopTime="0.00" timeLoss="8.03" rerouteNo="0" devices="tripinfo_straightW_115" vType="vehicleW_115" speedFactor="1.04" vaporized=""/>
    <tripinfo id="straightE_97" depart="52.00" departLane="edgeE_O_2" departPos="4.18" departSpeed="0.00" departDelay="0.00" arrival="168.00" arrivalLane="edgeW_I_1" arrivalPos="882.50" arrivalSpeed="20.40" duration="116.00" routeLength="1895.82" waitingTime="0.00" waitingCount="0" stopTime="0.00" timeLoss="8.62" rerouteNo="0" devices="tripinfo_straightE_97" vType="vehicleE_97" speedFactor="0.94" vaporized=""/>
    <tripinfo id="straightE_108" depart="60.00" departLane="edgeE_O_1" departPos="4.67" departSpeed="0.00" departDelay="0.00" arrival="168.00" arrivalLane="edgeW_I_3" arrivalPos="882.50" arrivalSpeed="23.45" duration="108.00" routeLength="1895.33" waitingTime="0.00" waitingCount="0" stopTime="0.00" timeLoss="11.83" rerouteNo="0" devices="tripinfo_straightE_108" vType="vehicleE_108" speedFactor="1.05" vaporized=""/>
    <tripinfo id="rightW_135" depart="76.00" departLane="edgeW_O_1" departPos="4.31" departSpeed="0.00" departDelay="0.00" arrival="171.00" arrivalLane="edgeS_I_1" arrivalPos="676.10" arrivalSpeed="22.92" duration="95.00" routeLength="1564.45" waitingTime="0.00" waitingCount="0" stopTime="0.00" timeLoss="9.33" rerouteNo="0" devices="tripinfo_rightW_135" vType="vehicleW_135" speedFactor="0.98" vaporized=""/>
    <tripinfo id="straightW_95" depart="51.00" departLane="edgeW_O_1" departPos="4.99" departSpeed="0.00" departDelay="0.00" arrival="172.00" arrivalLane="edgeE_I_1" arrivalPos="982.50" arrivalSpeed="19.60" duration="121.00" routeLength="1895.01" waitingTime="0.00" waitingCount="0" stopTime="0.00" timeLoss="9.62" rerouteNo="0" devices="tripinfo_straightW_95" vType="vehicleW_95" speedFactor="0.89" vaporized=""/>
    <tripinfo id="straightE_106" depart="59.00" departLane="edgeE_O_5" departPos="4.55" departSpeed="0.00" departDelay="0.00" arrival="172.00" arrivalLane="edgeW_I_1" arrivalPos="882.50" arrivalSpeed="22.05" duration="113.00" routeLength="1895.45" waitingTime="0.00" waitingCount="0" stopTime="0.00" timeLoss="8.52" rerouteNo="0" devices="tripinfo_straightE_106" vType="vehicleE_106" speedFactor="0.96" vaporized=""/>
    <tripinfo id="straightW_68" depart="38.00" departLane="edgeW_O_3" departPos="5.01" departSpeed="0.00" departDelay="0.00" arrival="175.00" arrivalLane="edgeE_I_1" arrivalPos="982.50" arrivalSpeed="17.37" duration="137.00" routeLength="1894.99" waitingTime="0.00" waitingCount="0" stopTime="0.00" timeLoss="9.29" rerouteNo="0" devices="tripinfo_straightW_68" vType="vehicleW_68" speedFactor="0.78" vaporized=""/>
    <tripinfo id="straightW_104" depart="58.00" departLane="edgeW_O_2" departPos="4.84" departSpeed="0.00" departDelay="0.00" arrival="176.00" arrivalLane="edgeE_I_2" arrivalPos="982.50" arrivalSpeed="19.80" duration="118.00" routeLength="1895.16" waitingTime="0.00" waitingCount="0" stopTime="0.00" timeLoss="8.53" rerouteNo="0" devices="tripinfo_straightW_104" vType="vehicleW_104" speedFactor="0.91" vaporized=""/>
    <tripinfo id="straightW_114" depart="63.00" departLane="edgeW_O_5" departPos="4.51" departSpeed="0.00" departDelay="0.00" arrival="177.00" arrivalLane="edgeE_I_1" arrivalPos="982.50" arrivalSpeed="20.98" duration="114.00" routeLength="1895.49" waitingTime="0.00" waitingCount="0" stopTime="0.00" timeLoss="8.64" rerouteNo="0" devices="tripinfo_straightW_114" vType="vehicleW_114" speedFactor="0.94" vaporized=""/>
    <tripinfo id="straightE_120" depart="66.00" departLane="edgeE_O_1" departPos="4.51" departSpeed="0.00" departDelay="0.00" arrival="178.00" arrivalLane="edgeW_I_1" arrivalPos="882.50" arrivalSpeed="21.39" duration="112.00" routeLength="1895.49" waitingTime="0.00" waitingCount="0" stopTime="0.00" timeLoss="8.30" rerouteNo="0" devices="tripinfo_straightE_120" vType="vehicleE_120" speedFactor="0.97" vaporized=""/>
    <tripinfo id="leftE_93" depart="51.00" departLane="edgeE_O_5" departPos="4.54" departSpeed="0.00" departDelay="1.00" arrival="179.00" arrivalLane="edgeS_I_2" arrivalPos="676.10" arrivalSpeed="18.20" duration="128.00" routeLength="1690.18" waitingTime="2.00" waitingCount="1" stopTime="0.00" timeLoss="16.20" rerouteNo="0" devices="tripinfo_leftE_93" vType="vehicleE_93" speedFactor="0.83" vaporized=""/>
    <tripinfo id="straightW_124" depart="69.00" departLane="edgeW_O_2" departPos="4.94" departSpeed="0.00" departDelay="0.00" arrival="179.00" arrivalLane="edgeE_I_2" arrivalPos="982.50" arrivalSpeed="21.13" duration="110.00" routeLength="1895.06" waitingTime="0.00" waitingCount="0" stopTime="0.00" timeLoss="7.29" rerouteNo="0" devices="tripinfo_straightW_124" vType="vehicleW_124" speedFactor="0.96" vaporized=""/>
    <tripinfo id="straightE_125" depart="69.00" departLane="edgeE_O_5" departPos="4.70" departSpeed="0.00" departDelay="0.00" arrival="179.00" arrivalLane="edgeW_I_2" arrivalPos="882.50" arrivalSpeed="22.66" duration="110.00" routeLength="1895.30" waitingTime="0.00" waitingCount="0" stopTime="0.00" timeLoss="7.70" rerouteNo="0" devices="tripinfo_straightE_125" vType="vehicleE_125" speedFactor="0.99" vaporized=""/>
    <tripinfo id="straightE_136" depart="77.00" departLane="edgeE_O_5" departPos="4.81" departSpeed="0.00" departDelay="0.00" arrival="179.00" arrivalLane="edgeW_I_3" arrivalPos="882.50" arrivalSpeed="24.15" duration="102.00" routeLength="1895.18" waitingTime="0.00" waitingCount="0" stopTime="0.00" timeLoss="8.24" rerouteNo="0" devices="tripinfo_straightE_136" vType="vehicleE_136" speedFactor="1.07" vaporized=""/>
    <tripinfo id="straightE_141" depart="81.00" departLane="edgeE_O_3" departPos="4.43" departSpeed="0.00" departDelay="0.00" arrival="180.00" arrivalLane="edgeW_I_4" arrivalPos="882.50" arrivalSpeed="25.75" duration="99.00" routeLength="1895.57" waitingTime="0.00" waitingCount="0" stopTime="0.00" timeLoss="9.07" rerouteNo="0" devices="tripinfo_straightE_141" vType="vehicleE_141" speedFactor="1.12" vaporized=""/>
    <tripinfo id="straightE_129" depart="73.00" departLane="edgeE_O_4" departPos="5.21" departSpeed="0.00" departDelay="2.00" arrival="181.00" arrivalLane="edgeW_I_2" arrivalPos="882.50" arrivalSpeed="22.68" duration="108.00" routeLength="1894.79" waitingTime="0.00" waitingCount="0" stopTime="0.00" timeLoss="8.11" rerouteNo="0" devices="tripinfo_straightE_129" vType="vehicleE_129" speedFactor="1.01" vaporized=""/>