<?xml version="1.0" encoding="UTF-8"?>

<!-- generated on 2021-10-23 04:06:19 by Eclipse SUMO sumo Version 1.10.0
<configuration xmlns:xsi="http://www.w3.org/2001/XMLSchema-instance" xsi:noNamespaceSchemaLocation="http://sumo.dlr.de/xsd/sumoConfiguration.xsd">

    <input>
        <net-file value="data0/cross.net.xml"/>
        <route-files value="data0/cross.rou.xml"/>
        <additional-files value="data0/cross.tls.xml"/>
    </input>

    <output>
        <tripinfo-output value="data0/tripinfo.xml"/>
        <tripinfo-output.write-unfinished value="true"/>
    </output>

    <time>
        <begin value="0"/>
        <step-length value="1"/>
    </time>

    <processing>
        <threads value="5"/>
        <time-to-teleport value="-1"/>
    </processing>

    <report>
        <verbose value="true"/>
        <no-warnings value="true"/>
        <no-step-log value="true"/>
    </report>

    <traci_server>
        <remote-port value="54638"/>
    </traci_server>

    <gui_only>
        <gui-settings-file value="data0/viewsettings.xml"/>
        <tracker-interval value="1"/>
    </gui_only>

</configuration>
-->

<tripinfos xmlns:xsi="http://www.w3.org/2001/XMLSchema-instance" xsi:noNamespaceSchemaLocation="http://sumo.dlr.de/xsd/tripinfo_file.xsd">
    <tripinfo id="uturnN_24" depart="19.00" departLane="edgeN_O_3" departPos="5.45" departSpeed="0.00" departDelay="0.00" arrival="65.00" arrivalLane="edgeN_I_2" arrivalPos="285.70" arrivalSpeed="11.55" duration="46.00" routeLength="570.62" waitingTime="0.00" waitingCount="0" stopTime="0.00" timeLoss="8.63" rerouteNo="0" devices="tripinfo_uturnN_24" vType="vehicleN_24" speedFactor="1.07" vaporized=""/>
    <tripinfo id="leftS_7" depart="7.00" departLane="edgeS_O_3" departPos="4.57" departSpeed="0.00" departDelay="0.00" arrival="71.00" arrivalLane="edgeW_I_2" arrivalPos="385.70" arrivalSpeed="23.84" duration="64.00" routeLength="1095.96" waitingTime="0.00" waitingCount="0" stopTime="0.00" timeLoss="10.58" rerouteNo="0" devices="tripinfo_leftS_7" vType="vehicleS_7" speedFactor="0.98" vaporized=""/>
    <tripinfo id="straightS_6" depart="6.00" departLane="edgeS_O_1" departPos="4.32" departSpeed="0.00" departDelay="0.00" arrival="74.00" arrivalLane="edgeN_I_2" arrivalPos="285.70" arrivalSpeed="12.25" duration="68.00" routeLength="995.68" waitingTime="0.00" waitingCount="0" stopTime="0.00" timeLoss="9.05" rerouteNo="0" devices="tripinfo_straightS_6" vType="vehicleS_6" speedFactor="1.03" vaporized=""/>
    <tripinfo id="straightS_11" depart="9.00" departLane="edgeS_O_1" departPos="5.71" departSpeed="0.00" departDelay="0.00" arrival="76.00" arrivalLane="edgeN_I_2" arrivalPos="285.70" arrivalSpeed="12.35" duration="67.00" routeLength="994.29" waitingTime="0.00" waitingCount="0" stopTime="0.00" timeLoss="8.17" rerouteNo="0" devices="tripinfo_straightS_11" vType="vehicleS_11" speedFactor="1.03" vaporized=""/>
    <tripinfo id="straightS_0" depart="0.00" departLane="edgeS_O_1" departPos="4.42" departSpeed="0.00" departDelay="0.00" arrival="77.00" arrivalLane="edgeN_I_1" arrivalPos="285.70" arrivalSpeed="9.30" duration="77.00" routeLength="995.58" waitingTime="0.00" waitingCount="0" stopTime="0.00" timeLoss="7.56" rerouteNo="0" devices="tripinfo_straightS_0" vType="vehicleS_0" speedFactor="0.86" vaporized=""/>
    <tripinfo id="straightN_2" depart="1.00" departLane="edgeN_O_2" departPos="5.40" departSpeed="0.00" departDelay="0.00" arrival="81.00" arrivalLane="edgeS_I_1" arrivalPos="685.70" arrivalSpeed="11.80" duration="80.00" routeLength="994.60" waitingTime="0.00" waitingCount="0" stopTime="0.00" timeLoss="8.15" rerouteNo="0" devices="tripinfo_straightN_2" vType="vehicleN_2" speedFactor="1.01" vaporized=""/>
    <tripinfo id="straightS_16" depart="13.00" departLane="edgeS_O_1" departPos="4.16" departSpeed="0.00" departDelay="0.00" arrival="81.00" arrivalLane="edgeN_I_1" arrivalPos="285.70" arrivalSpeed="10.56" duration="68.00" routeLength="995.84" waitingTime="0.00" waitingCount="0" stopTime="0.00" timeLoss="7.00" rerouteNo="0" devices="tripinfo_straightS_16" vType="vehicleS_16" speedFactor="0.99" vaporized=""/>
    <tripinfo id="straightS_28" depart="21.00" departLane="edgeS_O_1" departPos="4.89" departSpeed="0.00" departDelay="1.00" arrival="82.00" arrivalLane="edgeN_I_3" arrivalPos="285.70" arrivalSpeed="12.28" duration="61.00" routeLength="995.11" waitingTime="0.00" waitingCount="0" stopTime="0.00" timeLoss="6.84" rerouteNo="0" devices="tripinfo_straightS_28" vType="vehicleS_28" speedFactor="1.12" vaporized=""/>
    <tripinfo id="leftS_30" depart="21.00" departLane="edgeS_O_3" departPos="5.15" departSpeed="0.00" departDelay="0.00" arrival="86.00" arrivalLane="edgeW_I_2" arrivalPos="385.70" arrivalSpeed="22.33" duration="65.00" routeLength="1095.38" waitingTime="0.00" waitingCount="0" stopTime="0.00" timeLoss="8.65" rerouteNo="0" devices="tripinfo_leftS_30" vType="vehicleS_30" speedFactor="0.92" vaporized=""/>
    <tripinfo id="straightS_22" depart="18.00" departLane="edgeS_O_1" departPos="4.61" departSpeed="0.00" departDelay="0.00" arrival="87.00" arrivalLane="edgeN_I_1" arrivalPos="285.70" arrivalSpeed="11.80" duration="69.00" routeLength="995.39" waitingTime="0.00" waitingCount="0" stopTime="0.00" timeLoss="7.17" rerouteNo="0" devices="tripinfo_straightS_22" vType="vehicleS_22" speedFactor="0.98" vaporized=""/>
    <tripinfo id="straightN_19" depart="16.00" departLane="edgeN_O_1" departPos="4.43" departSpeed="0.00" departDelay="0.00" arrival="90.00" arrivalLane="edgeS_I_1" arrivalPos="685.70" arrivalSpeed="13.16" duration="74.00" routeLength="995.57" waitingTime="0.00" waitingCount="0" stopTime="0.00" timeLoss="8.07" rerouteNo="0" devices="tripinfo_straightN_19" vType="vehicleN_19" speedFactor="1.11" vaporized=""/>
    <tripinfo id="straightS_37" depart="25.00" departLane="edgeS_O_2" departPos="4.51" departSpeed="0.00" departDelay="0.00" arrival="92.00" arrivalLane="edgeN_I_1" arrivalPos="285.70" arrivalSpeed="11.72" duration="67.00" routeLength="995.49" waitingTime="0.00" waitingCount="0" stopTime="0.00" timeLoss="8.65" rerouteNo="0" devices="tripinfo_straightS_37" vType="vehicleS_37" speedFactor="1.04" vaporized=""/>
    <tripinfo id="leftN_62" depart="50.00" departLane="edgeN_O_3" departPos="4.07" departSpeed="0.00" departDelay="0.00" arrival="93.00" arrivalLane="edgeE_I_2" arrivalPos="485.70" arrivalSpeed="25.52" duration="43.00" routeLength="796.46" waitingTime="0.00" waitingCount="0" stopTime="0.00" timeLoss="6.83" rerouteNo="0" devices="tripinfo_leftN_62" vType="vehicleN_62" speedFactor="1.00" vaporized=""/>
    <tripinfo id="straightS_34" depart="24.00" departLane="edgeS_O_1" departPos="4.54" departSpeed="0.00" departDelay="0.00" arrival="95.00" arrivalLane="edgeN_I_1" arrivalPos="285.70" arrivalSpeed="9.72" duration="71.00" routeLength="995.46" waitingTime="0.00" waitingCount="0" stopTime="0.00" timeLoss="6.63" rerouteNo="0" devices="tripinfo_straightS_34" vType="vehicleS_34" speedFactor="0.94" vaporized=""/>
    <tripinfo id="straightN_13" depart="11.00" departLane="edgeN_O_2" departPos="4.34" departSpeed="0.00" departDelay="0.00" arrival="99.00" arrivalLane="edgeS_I_1" arrivalPos="685.70" arrivalSpeed="10.67" duration="88.00" routeLength="995.66" waitingTime="0.00" waitingCount="0" stopTime="0.00" timeLoss="8.29" rerouteNo="0" devices="tripinfo_straightN_13" vType="vehicleN_13" speedFactor="0.91" vaporized=""/>
    <tripinfo id="straightN_27" depart="20.00" departLane="edgeN_O_2" departPos="5.67" departSpeed="0.00" departDelay="0.00" arrival="101.00" arrivalLane="edgeS_I_2" arrivalPos="685.70" arrivalSpeed="11.87" duration="81.00" routeLength="994.33" waitingTime="0.00" waitingCount="0" stopTime="0.00" timeLoss="8.37" rerouteNo="0" devices="tripinfo_straightN_27" vType="vehicleN_27" speedFactor="1.01" vaporized=""/>
    <tripinfo id="straightN_17" depart="14.00" departLane="edgeN_O_1" departPos="5.06" departSpeed="0.00" departDelay="0.00" arrival="105.00" arrivalLane="edgeS_I_1" arrivalPos="685.70" arrivalSpeed="9.69" duration="91.00" routeLength="994.94" waitingTime="0.00" waitingCount="0" stopTime="0.00" timeLoss="9.27" rerouteNo="0" devices="tripinfo_straightN_17" vType="vehicleN_17" speedFactor="0.89" vaporized=""/>
    <tripinfo id="straightN_36" depart="25.00" departLane="edgeN_O_1" departPos="4.48" departSpeed="0.00" departDelay="0.00" arrival="112.00" arrivalLane="edgeS_I_1" arrivalPos="685.70" arrivalSpeed="10.36" duration="87.00" routeLength="995.52" waitingTime="0.00" waitingCount="0" stopTime="0.00" timeLoss="8.27" rerouteNo="0" devices="tripinfo_straightN_36" vType="vehicleN_36" speedFactor="0.92" vaporized=""/>
    <tripinfo id="straightN_40" depart="27.00" departLane="edgeN_O_2" departPos="4.21" departSpeed="0.00" departDelay="0.00" arrival="113.00" arrivalLane="edgeS_I_2" arrivalPos="685.70" arrivalSpeed="11.48" duration="86.00" routeLength="995.79" waitingTime="0.00" waitingCount="0" stopTime="0.00" timeLoss="8.81" rerouteNo="0" devices="tripinfo_straightN_40" vType="vehicleN_40" speedFactor="0.95" vaporized=""/>
    <tripinfo id="leftS_63" depart="50.00" departLane="edgeS_O_2" departPos="5.65" departSpeed="0.00" departDelay="0.00" arrival="115.00" arrivalLane="edgeW_I_2" arrivalPos="385.70" arrivalSpeed="24.22" duration="65.00" routeLength="1094.88" waitingTime="0.00" waitingCount="0" stopTime="0.00" timeLoss="11.95" rerouteNo="0" devices="tripinfo_leftS_63" vType="vehicleS_63" speedFactor="0.98" vaporized=""/>
    <tripinfo id="straightN_41" depart="28.00" departLane="edgeN_O_1" departPos="5.38" departSpeed="0.00" departDelay="0.00" arrival="117.00" arrivalLane="edgeS_I_1" arrivalPos="685.70" arrivalSpeed="10.47" duration="89.00" routeLength="994.62" waitingTime="0.00" waitingCount="0" stopTime="0.00" timeLoss="8.20" rerouteNo="0" devices="tripinfo_straightN_41" vType="vehicleN_41" speedFactor="0.90" vaporized=""/>
    <tripinfo id="leftN_90" depart="80.00" departLane="edgeN_O_2" departPos="4.73" departSpeed="0.00" departDelay="0.00" arrival="121.00" arrivalLane="edgeE_I_2" arrivalPos="485.70" arrivalSpeed="29.23" duration="41.00" routeLength="793.43" waitingTime="0.00" waitingCount="0" stopTime="0.00" timeLoss="10.70" rerouteNo="0" devices="tripinfo_leftN_90" vType="vehicleN_90" speedFactor="1.18" vaporized=""/>
    <tripinfo id="straightN_52" depart="37.00" departLane="edgeN_O_1" departPos="4.08" departSpeed="0.00" departDelay="0.00" arrival="125.00" arrivalLane="edgeS_I_1" arrivalPos="685.70" arrivalSpeed="10.87" duration="88.00" routeLength="995.92" waitingTime="0.00" waitingCount="0" stopTime="0.00" timeLoss="8.79" rerouteNo="0" devices="tripinfo_straightN_52" vType="vehicleN_52" speedFactor="0.92" vaporized=""/>
    <tripinfo id="straightN_54" depart="40.00" departLane="edgeN_O_1" departPos="5.21" departSpeed="0.00" departDelay="1.00" arrival="125.00" arrivalLane="edgeS_I_2" arrivalPos="685.70" arrivalSpeed="10.35" duration="85.00" routeLength="994.79" waitingTime="0.00" waitingCount="0" stopTime="0.00" timeLoss="8.62" rerouteNo="0" devices="tripinfo_straightN_54" vType="vehicleN_54" speedFactor="0.95" vaporized=""/>
    <tripinfo id="straightN_50" depart="35.00" departLane="edgeN_O_1" departPos="5.06" departSpeed="0.00" departDelay="0.00" arrival="126.00" arrivalLane="edgeS_I_3" arrivalPos="685.70" arrivalSpeed="12.25" duration="91.00" routeLength="994.94" waitingTime="0.00" waitingCount="0" stopTime="0.00" timeLoss="19.42" rerouteNo="0" devices="tripinfo_straightN_50" vType="vehicleN_50" speedFactor="1.01" vaporized=""/>
    <tripinfo id="straightN_47" depart="32.00" departLane="edgeN_O_1" departPos="4.36" departSpeed="0.00" departDelay="0.00" arrival="128.00" arrivalLane="edgeS_I_3" arrivalPos="685.70" arrivalSpeed="13.97" duration="96.00" routeLength="995.64" waitingTime="0.00" waitingCount="0" stopTime="0.00" timeLoss="32.45" rerouteNo="0" devices="tripinfo_straightN_47" vType="vehicleN_47" speedFactor="1.15" vaporized=""/>
    <tripinfo id="straightN_49" depart="34.00" departLane="edgeN_O_2" departPos="4.68" departSpeed="0.00" departDelay="0.00" arrival="129.00" arrivalLane="edgeS_I_2" arrivalPos="685.70" arrivalSpeed="9.73" duration="95.00" routeLength="995.32" waitingTime="0.00" waitingCount="0" stopTime="0.00" timeLoss="10.61" rerouteNo="0" devices="tripinfo_straightN_49" vType="vehicleN_49" speedFactor="0.86" vaporized=""/>
    <tripinfo id="straightN_45" depart="30.00" departLane="edgeN_O_2" departPos="4.63" departSpeed="0.00" departDelay="0.00" arrival="130.00" arrivalLane="edgeS_I_1" arrivalPos="685.70" arrivalSpeed="8.23" duration="100.00" routeLength="995.37" waitingTime="0.00" waitingCount="0" stopTime="0.00" timeLoss="10.20" rerouteNo="0" devices="tripinfo_straightN_45" vType="vehicleN_45" speedFactor="0.81" vaporized=""/>
    <tripinfo id="straightN_67" depart="52.00" departLane="edgeN_O_2" departPos="5.44" departSpeed="0.00" departDelay="0.00" arrival="131.00" arrivalLane="edgeS_I_2" arrivalPos="685.70" arrivalSpeed="12.69" duration="79.00" routeLength="994.56" waitingTime="0.00" waitingCount="0" stopTime="0.00" timeLoss="9.37" rerouteNo="0" devices="tripinfo_straightN_67" vType="vehicleN_67" speedFactor="1.04" vaporized=""/>
    <tripinfo id="straightS_73" depart="59.00" departLane="edgeS_O_2" departPos="4.72" departSpeed="0.00" departDelay="0.00" arrival="132.00" arrivalLane="edgeN_I_1" arrivalPos="285.70" arrivalSpeed="10.29" duration="73.00" routeLength="995.28" waitingTime="0.00" waitingCount="0" stopTime="0.00" timeLoss="7.32" rerouteNo="0" devices="tripinfo_straightS_73" vType="vehicleS_73" speedFactor="0.91" vaporized=""/>
    <tripinfo id="uturnN_96" depart="86.00" departLane="edgeN_O_3" departPos="4.25" departSpeed="0.00" departDelay="0.00" arrival="135.00" arrivalLane="edgeN_I_2" arrivalPos="285.70" arrivalSpeed="11.87" duration="49.00" routeLength="571.82" waitingTime="0.00" waitingCount="0" stopTime="0.00" timeLoss="10.46" rerouteNo="0" devices="tripinfo_uturnN_96" vType="vehicleN_96" speedFactor="1.04" vaporized=""/>
    <tripinfo id="straightN_55" depart="43.00" departLane="edgeN_O_1" departPos="5.11" departSpeed="0.00" departDelay="0.00" arrival="136.00" arrivalLane="edgeS_I_1" arrivalPos="685.70" arrivalSpeed="9.69" duration="93.00" routeLength="994.89" waitingTime="0.00" waitingCount="0" stopTime="0.00" timeLoss="9.42" rerouteNo="0" devices="tripinfo_straightN_55" vType="vehicleN_55" speedFactor="0.87" vaporized=""/>
    <tripinfo id="straightN_65" depart="51.00" departLane="edgeN_O_1" departPos="5.06" departSpeed="0.00" departDelay="0.00" arrival="136.00" arrivalLane="edgeS_I_2" arrivalPos="685.70" arrivalSpeed="10.93" duration="85.00" routeLength="994.94" waitingTime="0.00" waitingCount="0" stopTime="0.00" timeLoss="9.75" rerouteNo="0" devices="tripinfo_straightN_65" vType="vehicleN_65" speedFactor="0.97" vaporized=""/>
    <tripinfo id="straightN_70" depart="57.00" departLane="edgeN_O_2" departPos="4.45" departSpeed="0.00" departDelay="0.00" arrival="141.00" arrivalLane="edgeS_I_1" arrivalPos="685.70" arrivalSpeed="11.53" duration="84.00" routeLength="995.55" waitingTime="0.00" waitingCount="0" stopTime="0.00" timeLoss="8.55" rerouteNo="0" devices="tripinfo_straightN_70" vType="vehicleN_70" speedFactor="0.97" vaporized=""/>
    <tripinfo id="straightS_82" depart="67.00" departLane="edgeS_O_2" departPos="5.20" departSpeed="0.00" departDelay="0.00" arrival="148.00" arrivalLane="edgeN_I_1" arrivalPos="285.70" arrivalSpeed="8.95" duration="81.00" routeLength="994.80" waitingTime="0.00" waitingCount="0" stopTime="0.00" timeLoss="7.13" rerouteNo="0" devices="tripinfo_straightS_82" vType="vehicleS_82" speedFactor="0.81" vaporized=""/>
    <tripinfo id="straightN_85" depart="76.00" departLane="edgeN_O_1" departPos="4.83" departSpeed="0.00" departDelay="1.00" arrival="148.00" arrivalLane="edgeS_I_1" arrivalPos="685.70" arrivalSpeed="12.55" duration="72.00" routeLength="995.17" waitingTime="0.00" waitingCount="0" stopTime="0.00" timeLoss="8.63" rerouteNo="0" devices="tripinfo_straightN_85" vType="vehicleN_85" speedFactor="1.16" vaporized=""/>
    <tripinfo id="uturnW_105" depart="92.00" departLane="edgeW_O_3" departPos="5.47" departSpeed="0.00" departDelay="0.00" arrival="150.00" arrivalLane="edgeW_I_3" arrivalPos="385.70" arrivalSpeed="26.83" duration="58.00" routeLength="770.60" waitingTime="7.00" waitingCount="1" stopTime="0.00" timeLoss="21.95" rerouteNo="0" devices="tripinfo_uturnW_105" vType="vehicleW_105" speedFactor="1.08" vaporized=""/>
    <tripinfo id="uturnE_68" depart="52.00" departLane="edgeE_O_3" departPos="5.36" departSpeed="0.00" departDelay="0.00" arrival="151.00" arrivalLane="edgeE_I_3" arrivalPos="485.70" arrivalSpeed="29.28" duration="99.00" routeLength="970.72" waitingTime="44.00" waitingCount="1" stopTime="0.00" timeLoss="58.56" rerouteNo="0" devices="tripinfo_uturnE_68" vType="vehicleE_68" speedFactor="1.19" vaporized=""/>
    <tripinfo id="straightN_87" depart="80.00" departLane="edgeN_O_1" departPos="5.67" departSpeed="0.00" departDelay="2.00" arrival="153.00" arrivalLane="edgeS_I_1" arrivalPos="685.70" arrivalSpeed="13.53" duration="73.00" routeLength="994.33" waitingTime="0.00" waitingCount="0" stopTime="0.00" timeLoss="9.69" rerouteNo="0" devices="tripinfo_straightN_87" vType="vehicleN_87" speedFactor="1.16" vaporized=""/>
    <tripinfo id="straightN_81" depart="67.00" departLane="edgeN_O_1" departPos="5.15" departSpeed="0.00" departDelay="0.00" arrival="159.00" arrivalLane="edgeS_I_1" arrivalPos="685.70" arrivalSpeed="10.53" duration="92.00" routeLength="994.85" waitingTime="0.00" waitingCount="0" stopTime="0.00" timeLoss="9.10" rerouteNo="0" devices="tripinfo_straightN_81" vType="vehicleN_81" speedFactor="0.88" vaporized=""/>
    <tripinfo id="straightN_88" depart="82.00" departLane="edgeN_O_1" departPos="5.31" departSpeed="0.00" departDelay="3.00" arrival="159.00" arrivalLane="edgeS_I_2" arrivalPos="685.70" arrivalSpeed="11.98" duration="77.00" routeLength="994.69" waitingTime="0.00" waitingCount="0" stopTime="0.00" timeLoss="9.66" rerouteNo="0" devices="tripinfo_straightN_88" vType="vehicleN_88" speedFactor="1.08" vaporized=""/>
    <tripinfo id="straightN_83" depart="71.00" departLane="edgeN_O_2" departPos="4.56" departSpeed="0.00" departDelay="0.00" arrival="162.00" arrivalLane="edgeS_I_1" arrivalPos="685.70" arrivalSpeed="9.61" duration="91.00" routeLength="995.44" waitingTime="0.00" waitingCount="0" stopTime="0.00" timeLoss="9.79" rerouteNo="0" devices="tripinfo_straightN_83" vType="vehicleN_83" speedFactor="0.89" vaporized=""/>
    <tripinfo id="straightN_84" depart="74.00" departLane="edgeN_O_1" departPos="5.17" departSpeed="0.00" departDelay="0.00" arrival="164.00" arrivalLane="edgeS_I_1" arrivalPos="685.70" arrivalSpeed="11.15" duration="90.00" routeLength="994.83" waitingTime="0.00" waitingCount="0" stopTime="0.00" timeLoss="11.40" rerouteNo="0" devices="tripinfo_straightN_84" vType="vehicleN_84" speedFactor="0.92" vaporized=""/>
    <tripinfo id="straightN_86" depart="77.00" departLane="edgeN_O_2" departPos="4.73" departSpeed="0.00" departDelay="0.00" arrival="164.00" arrivalLane="edgeS_I_2" arrivalPos="685.70" arrivalSpeed="11.20" duration="87.00" routeLength="995.27" waitingTime="0.00" waitingCount="0" stopTime="0.00" timeLoss="9.51" rerouteNo="0" devices="tripinfo_straightN_86" vType="vehicleN_86" speedFactor="0.94" vaporized=""/>
    <tripinfo id="straightN_98" depart="91.00" departLane="edgeN_O_1" departPos="5.67" departSpeed="0.00" departDelay="4.00" arrival="166.00" arrivalLane="edgeS_I_2" arrivalPos="685.70" arrivalSpeed="13.23" duration="75.00" routeLength="994.33" waitingTime="0.00" waitingCount="0" stopTime="0.00" timeLoss="10.35" rerouteNo="0" devices="tripinfo_straightN_98" vType="vehicleN_98" speedFactor="1.14" vaporized=""/>
    <tripinfo id="uturnW_135" depart="122.00" departLane="edgeW_O_3" departPos="4.13" departSpeed="0.00" departDelay="0.00" arrival="171.00" arrivalLane="edgeW_I_3" arrivalPos="385.70" arrivalSpeed="26.96" duration="49.00" routeLength="771.95" waitingTime="0.00" waitingCount="0" stopTime="0.00" timeLoss="11.64" rerouteNo="0" devices="tripinfo_uturnW_135" vType="vehicleW_135" speedFactor="1.06" vaporized=""/>
    <tripinfo id="straightN_101" depart="90.00" departLane="edgeN_O_2" departPos="4.53" departSpeed="0.00" departDelay="0.00" arrival="174.00" arrivalLane="edgeS_I_1" arrivalPos="685.70" arrivalSpeed="11.50" duration="84.00" routeLength="995.47" waitingTime="0.00" waitingCount="0" stopTime="0.00" timeLoss="8.95" rerouteNo="0" devices="tripinfo_straightN_101" vType="vehicleN_101" speedFactor="0.97" vaporized=""/>
    <tripinfo id="straightN_93" depart="85.00" departLane="edgeN_O_1" departPos="4.74" departSpeed="0.00" departDelay="3.00" arrival="176.00" arrivalLane="edgeS_I_2" arrivalPos="685.70" arrivalSpeed="10.69" duration="91.00" routeLength="995.26" waitingTime="0.00" waitingCount="0" stopTime="0.00" timeLoss="10.70" rerouteNo="0" devices="tripinfo_straightN_93" vType="vehicleN_93" speedFactor="0.91" vaporized=""/>
    <tripinfo id="straightE_1" depart="0.00" departLane="edgeE_O_2" departPos="4.43" departSpeed="0.00" departDelay="0.00" arrival="180.00" arrivalLane="edgeW_I_1" arrivalPos="385.70" arrivalSpeed="24.63" duration="180.00" routeLength="895.57" waitingTime="122.00" waitingCount="1" stopTime="0.00" timeLoss="134.27" rerouteNo="0" devices="tripinfo_straightE_1" vType="vehicleE_1" speedFactor="1.00" vaporized=""/>
    <tripinfo id="straightN_107" depart="96.00" departLane="edgeN_O_1" departPos="4.88" departSpeed="0.00" departDelay="2.00" arrival="180.00" arrivalLane="edgeS_I_1" arrivalPos="685.70" arrivalSpeed="11.81" duration="84.00" routeLength="995.12" waitingTime="0.00" waitingCount="0" stopTime="0.00" timeLoss="13.05" rerouteNo="0" devices="tripinfo_straightN_107" vType="vehicleN_107" speedFactor="1.02" vaporized=""/>
    <tripinfo id="straightE_4" depart="4.00" departLane="edgeE_O_1" departPos="4.53" departSpeed="0.00" departDelay="0.00" arrival="181.00" arrivalLane="edgeW_I_2" arrivalPos="385.70" arrivalSpeed="23.53" duration="177.00" routeLength="895.47" waitingTime="115.00" waitingCount="1" stopTime="0.00" timeLoss="130.09" rerouteNo="0" devices="tripinfo_straightE_4" vType="vehicleE_4" speedFactor="0.96" vaporized=""/>
    <tripinfo id="straightE_5" depart="7.00" departLane="edgeE_O_1" departPos="5.17" departSpeed="0.00" departDelay="2.00" arrival="182.00" arrivalLane="edgeW_I_1" arrivalPos="385.70" arrivalSpeed="27.36" duration="175.00" routeLength="894.83" waitingTime="117.00" waitingCount="1" stopTime="0.00" timeLoss="132.97" rerouteNo="0" devices="tripinfo_straightE_5" vType="vehicleE_5" speedFactor="1.08" vaporized=""/>
    <tripinfo id="straightW_8" depart="7.00" departLane="edgeW_O_1" departPos="5.53" departSpeed="0.00" departDelay="0.00" arrival="183.00" arrivalLane="edgeE_I_2" arrivalPos="485.70" arrivalSpeed="26.09" duration="176.00" routeLength="894.47" waitingTime="122.00" waitingCount="1" stopTime="0.00" timeLoss="135.52" rerouteNo="0" devices="tripinfo_straightW_8" vType="vehicleW_8" speedFactor="1.07" vaporized=""/>
    <tripinfo id="straightE_9" depart="7.00" departLane="edgeE_O_2" departPos="4.48" departSpeed="0.00" departDelay="0.00" arrival="183.00" arrivalLane="edgeW_I_2" arrivalPos="385.70" arrivalSpeed="22.92" duration="176.00" routeLength="895.52" waitingTime="115.00" waitingCount="1" stopTime="0.00" timeLoss="127.68" rerouteNo="0" devices="tripinfo_straightE_9" vType="vehicleE_9" speedFactor="0.93" vaporized=""/>
    <tripinfo id="straightE_14" depart="11.00" departLane="edgeE_O_1" departPos="4.31" departSpeed="0.00" departDelay="0.00" arrival="184.00" arrivalLane="edgeW_I_1" arrivalPos="385.70" arrivalSpeed="24.81" duration="173.00" routeLength="895.69" waitingTime="117.00" waitingCount="1" stopTime="0.00" timeLoss="129.37" rerouteNo="0" devices="tripinfo_straightE_14" vType="vehicleE_14" speedFactor="1.04" vaporized=""/>
    <tripinfo id="straightW_15" depart="12.00" departLane="edgeW_O_1" departPos="5.70" departSpeed="0.00" departDelay="0.00" arrival="184.00" arrivalLane="edgeE_I_1" arrivalPos="485.70" arrivalSpeed="26.35" duration="172.00" routeLength="894.30" waitingTime="118.00" waitingCount="1" stopTime="0.00" timeLoss="131.14" rerouteNo="0" devices="tripinfo_straightW_15" vType="vehicleW_15" speedFactor="1.05" vaporized=""/>
    <tripinfo id="straightW_10" depart="9.00" departLane="edgeW_O_1" departPos="5.31" departSpeed="0.00" departDelay="1.00" arrival="186.00" arrivalLane="edgeE_I_2" arrivalPos="485.70" arrivalSpeed="25.48" duration="177.00" routeLength="894.69" waitingTime="120.00" waitingCount="1" stopTime="0.00" timeLoss="133.41" rerouteNo="0" devices="tripinfo_straightW_10" vType="vehicleW_10" speedFactor="1.00" vaporized=""/>
    <tripinfo id="straightE_12" depart="9.00" departLane="edgeE_O_2" departPos="5.30" departSpeed="0.00" departDelay="0.00" arrival="186.00" arrivalLane="edgeW_I_2" arrivalPos="385.70" arrivalSpeed="24.75" duration="177.00" routeLength="894.70" waitingTime="115.00" waitingCount="2" stopTime="0.00" timeLoss="131.73" rerouteNo="0" devices="tripinfo_straightE_12" vType="vehicleE_12" speedFactor="1.00" vaporized=""/>
    <tripinfo id="straightW_20" depart="16.00" departLane="edgeW_O_2" departPos="4.95" departSpeed="0.00" departDelay="0.00" arrival="186.00" arrivalLane="edgeE_I_3" arrivalPos="485.70" arrivalSpeed="26.21" duration="170.00" routeLength="895.05" waitingTime="117.00" waitingCount="1" stopTime="0.00" timeLoss="129.58" rerouteNo="0" devices="tripinfo_straightW_20" vType="vehicleW_20" speedFactor="1.07" vaporized=""/>
    <tripinfo id="straightE_18" depart="15.00" departLane="edgeE_O_1" departPos="4.08" departSpeed="0.00" departDelay="0.00" arrival="187.00" arrivalLane="edgeW_I_1" arrivalPos="385.70" arrivalSpeed="26.62" duration="172.00" routeLength="895.92" waitingTime="113.00" waitingCount="1" stopTime="0.00" timeLoss="129.80" rerouteNo="0" devices="tripinfo_straightE_18" vType="vehicleE_18" speedFactor="1.09" vaporized=""/>
    <tripinfo id="straightE_21" depart="16.00" departLane="edgeE_O_2" departPos="4.72" departSpeed="0.00" departDelay="0.00" arrival="187.00" arrivalLane="edgeW_I_2" arrivalPos="385.70" arrivalSpeed="26.43" duration="171.00" routeLength="895.27" waitingTime="112.00" waitingCount="1" stopTime="0.00" timeLoss="135.25" rerouteNo="0" devices="tripinfo_straightE_21" vType="vehicleE_21" speedFactor="1.26" vaporized=""/>
    <tripinfo id="straightW_31" depart="22.00" departLane="edgeW_O_2" departPos="4.44" departSpeed="0.00" departDelay="1.00" arrival="188.00" arrivalLane="edgeE_I_2" arrivalPos="485.70" arrivalSpeed="26.05" duration="166.00" routeLength="895.56" waitingTime="111.00" waitingCount="1" stopTime="0.00" timeLoss="124.38" rerouteNo="0" devices="tripinfo_straightW_31" vType="vehicleW_31" speedFactor="1.03" vaporized=""/>
    <tripinfo id="straightW_25" depart="19.00" departLane="edgeW_O_2" departPos="4.40" departSpeed="0.00" departDelay="0.00" arrival="189.00" arrivalLane="edgeE_I_1" arrivalPos="485.70" arrivalSpeed="22.12" duration="170.00" routeLength="895.60" waitingTime="108.00" waitingCount="1" stopTime="0.00" timeLoss="121.54" rerouteNo="0" devices="tripinfo_straightW_25" vType="vehicleW_25" speedFactor="0.89" vaporized=""/>
    <tripinfo id="straightW_35" depart="24.00" departLane="edgeW_O_1" departPos="5.29" departSpeed="0.00" departDelay="0.00" arrival="189.00" arrivalLane="edgeE_I_3" arrivalPos="485.70" arrivalSpeed="32.05" duration="165.00" routeLength="894.71" waitingTime="110.00" waitingCount="1" stopTime="0.00" timeLoss="131.26" rerouteNo="0" devices="tripinfo_straightW_35" vType="vehicleW_35" speedFactor="1.29" vaporized=""/>
    <tripinfo id="straightE_26" depart="19.00" departLane="edgeE_O_2" departPos="5.60" departSpeed="0.00" departDelay="0.00" arrival="190.00" arrivalLane="edgeW_I_2" arrivalPos="385.70" arrivalSpeed="27.73" duration="171.00" routeLength="894.40" waitingTime="111.00" waitingCount="1" stopTime="0.00" timeLoss="129.17" rerouteNo="0" devices="tripinfo_straightE_26" vType="vehicleE_26" speedFactor="1.10" vaporized=""/>
    <tripinfo id="straightN_95" depart="88.00" departLane="edgeN_O_1" departPos="5.00" departSpeed="0.00" departDelay="4.00" arrival="190.00" arrivalLane="edgeS_I_1" arrivalPos="685.70" arrivalSpeed="9.49" duration="102.00" routeLength="995.00" waitingTime="0.00" waitingCount="0" stopTime="0.00" timeLoss="10.05" rerouteNo="0" devices="tripinfo_straightN_95" vType="vehicleN_95" speedFactor="0.79" vaporized=""/>
    <tripinfo id="straightE_23" depart="18.00" departLane="edgeE_O_1" departPos="4.82" departSpeed="0.00" departDelay="0.00" arrival="191.00" arrivalLane="edgeW_I_1" arrivalPos="385.70" arrivalSpeed="20.94" duration="173.00" routeLength="895.18" waitingTime="103.00" waitingCount="1" stopTime="0.00" timeLoss="117.77" rerouteNo="0" devices="tripinfo_straightE_23" vType="vehicleE_23" speedFactor="0.82" vaporized=""/>
    <tripinfo id="straightE_29" depart="20.00" departLane="edgeE_O_1" departPos="5.49" departSpeed="0.00" departDelay="0.00" arrival="191.00" arrivalLane="edgeW_I_2" arrivalPos="385.70" arrivalSpeed="24.90" duration="171.00" routeLength="894.51" waitingTime="103.00" waitingCount="1" stopTime="0.00" timeLoss="126.58" rerouteNo="0" devices="tripinfo_straightE_29" vType="vehicleE_29" speedFactor="1.02" vaporized=""/>
    <tripinfo id="straightW_38" depart="27.00" departLane="edgeW_O_1" departPos="5.23" departSpeed="0.00" departDelay="2.00" arrival="191.00" arrivalLane="edgeE_I_2" arrivalPos="485.70" arrivalSpeed="25.95" duration="164.00" routeLength="894.77" waitingTime="107.00" waitingCount="1" stopTime="0.00" timeLoss="123.44" rerouteNo="0" devices="tripinfo_straightW_38" vType="vehicleW_38" speedFactor="1.08" vaporized=""/>