<?xml version="1.0" encoding="UTF-8"?>

<!-- generated on 2021-10-23 05:40:19 by Eclipse SUMO sumo Version 1.10.0
<configuration xmlns:xsi="http://www.w3.org/2001/XMLSchema-instance" xsi:noNamespaceSchemaLocation="http://sumo.dlr.de/xsd/sumoConfiguration.xsd">

    <input>
        <net-file value="data5/cross.net.xml"/>
        <route-files value="data5/cross.rou.xml"/>
        <additional-files value="data5/cross.tls.xml"/>
    </input>

    <output>
        <tripinfo-output value="data5/tripinfo.xml"/>
        <tripinfo-output.write-unfinished value="true"/>
    </output>

    <time>
        <begin value="0"/>
        <step-length value="1"/>
    </time>

    <processing>
        <threads value="5"/>
        <time-to-teleport value="-1"/>
    </processing>

    <report>
        <verbose value="true"/>
        <no-warnings value="true"/>
        <no-step-log value="true"/>
    </report>

    <traci_server>
        <remote-port value="49276"/>
    </traci_server>

    <gui_only>
        <gui-settings-file value="data5/viewsettings.xml"/>
        <tracker-interval value="1"/>
    </gui_only>

</configuration>
-->

<tripinfos xmlns:xsi="http://www.w3.org/2001/XMLSchema-instance" xsi:noNamespaceSchemaLocation="http://sumo.dlr.de/xsd/tripinfo_file.xsd">
    <tripinfo id="uturnS_21" depart="22.00" departLane="edgeS_O_2" departPos="5.42" departSpeed="0.00" departDelay="0.00" arrival="56.00" arrivalLane="edgeS_I_2" arrivalPos="288.90" arrivalSpeed="26.10" duration="34.00" routeLength="577.06" waitingTime="0.00" waitingCount="0" stopTime="0.00" timeLoss="10.78" rerouteNo="0" devices="tripinfo_uturnS_21" vType="vehicleS_21" speedFactor="1.25" vaporized=""/>
    <tripinfo id="leftS_9" depart="10.00" departLane="edgeS_O_2" departPos="4.16" departSpeed="0.00" departDelay="0.00" arrival="61.00" arrivalLane="edgeW_I_1" arrivalPos="588.90" arrivalSpeed="20.12" duration="51.00" routeLength="894.12" waitingTime="0.00" waitingCount="0" stopTime="0.00" timeLoss="7.50" rerouteNo="0" devices="tripinfo_leftS_9" vType="vehicleS_9" speedFactor="0.97" vaporized=""/>
    <tripinfo id="straightS_0" depart="0.00" departLane="edgeS_O_1" departPos="4.36" departSpeed="0.00" departDelay="0.00" arrival="63.00" arrivalLane="edgeN_I_1" arrivalPos="988.90" arrivalSpeed="21.09" duration="63.00" routeLength="1295.64" waitingTime="0.00" waitingCount="0" stopTime="0.00" timeLoss="5.80" rerouteNo="0" devices="tripinfo_straightS_0" vType="vehicleS_0" speedFactor="1.09" vaporized=""/>
    <tripinfo id="straightN_3" depart="2.00" departLane="edgeN_O_1" departPos="4.59" departSpeed="0.00" departDelay="0.00" arrival="63.00" arrivalLane="edgeS_I_2" arrivalPos="288.90" arrivalSpeed="23.47" duration="61.00" routeLength="1295.41" waitingTime="0.00" waitingCount="0" stopTime="0.00" timeLoss="6.83" rerouteNo="0" devices="tripinfo_straightN_3" vType="vehicleN_3" speedFactor="1.15" vaporized=""/>
    <tripinfo id="rightS_6" depart="6.00" departLane="edgeS_O_1" departPos="4.26" departSpeed="0.00" departDelay="0.00" arrival="67.00" arrivalLane="edgeE_I_1" arrivalPos="788.90" arrivalSpeed="21.38" duration="61.00" routeLength="1083.70" waitingTime="0.00" waitingCount="0" stopTime="0.00" timeLoss="10.37" rerouteNo="0" devices="tripinfo_rightS_6" vType="vehicleS_6" speedFactor="1.02" vaporized=""/>
    <tripinfo id="rightS_11" depart="14.00" departLane="edgeS_O_1" departPos="5.48" departSpeed="0.00" departDelay="0.00" arrival="74.00" arrivalLane="edgeE_I_1" arrivalPos="788.90" arrivalSpeed="24.51" duration="60.00" routeLength="1085.17" waitingTime="1.00" waitingCount="1" stopTime="0.00" timeLoss="15.25" rerouteNo="0" devices="tripinfo_rightS_11" vType="vehicleS_11" speedFactor="1.17" vaporized=""/>
    <tripinfo id="straightS_13" depart="17.00" departLane="edgeS_O_1" departPos="5.68" departSpeed="0.00" departDelay="2.00" arrival="81.00" arrivalLane="edgeN_I_1" arrivalPos="988.90" arrivalSpeed="21.94" duration="64.00" routeLength="1294.32" waitingTime="0.00" waitingCount="0" stopTime="0.00" timeLoss="7.65" rerouteNo="0" devices="tripinfo_straightS_13" vType="vehicleS_13" speedFactor="1.10" vaporized=""/>
    <tripinfo id="leftS_39" depart="36.00" departLane="edgeS_O_2" departPos="4.54" departSpeed="0.00" departDelay="0.00" arrival="86.00" arrivalLane="edgeW_I_1" arrivalPos="588.90" arrivalSpeed="21.10" duration="50.00" routeLength="893.74" waitingTime="0.00" waitingCount="0" stopTime="0.00" timeLoss="7.70" rerouteNo="0" devices="tripinfo_leftS_39" vType="vehicleS_39" speedFactor="1.01" vaporized=""/>
    <tripinfo id="leftE_1" depart="0.00" departLane="edgeE_O_2" departPos="4.38" departSpeed="0.00" departDelay="0.00" arrival="91.00" arrivalLane="edgeS_I_2" arrivalPos="288.90" arrivalSpeed="22.19" duration="91.00" routeLength="1093.91" waitingTime="25.00" waitingCount="1" stopTime="0.00" timeLoss="38.59" rerouteNo="0" devices="tripinfo_leftE_1" vType="vehicleE_1" speedFactor="1.10" vaporized=""/>
    <tripinfo id="leftE_4" depart="4.00" departLane="edgeE_O_2" departPos="4.47" departSpeed="0.00" departDelay="0.00" arrival="93.00" arrivalLane="edgeS_I_2" arrivalPos="288.90" arrivalSpeed="23.44" duration="89.00" routeLength="1093.82" waitingTime="21.00" waitingCount="1" stopTime="0.00" timeLoss="38.80" rerouteNo="0" devices="tripinfo_leftE_4" vType="vehicleE_4" speedFactor="1.13" vaporized=""/>
    <tripinfo id="rightS_37" depart="33.00" departLane="edgeS_O_2" departPos="4.28" departSpeed="0.00" departDelay="0.00" arrival="94.00" arrivalLane="edgeE_I_1" arrivalPos="788.90" arrivalSpeed="21.53" duration="61.00" routeLength="1083.68" waitingTime="0.00" waitingCount="0" stopTime="0.00" timeLoss="10.52" rerouteNo="0" devices="tripinfo_rightS_37" vType="vehicleS_37" speedFactor="1.02" vaporized=""/>
    <tripinfo id="straightS_24" depart="24.00" departLane="edgeS_O_2" departPos="5.65" departSpeed="0.00" departDelay="1.00" arrival="96.00" arrivalLane="edgeN_I_1" arrivalPos="988.90" arrivalSpeed="19.60" duration="72.00" routeLength="1294.35" waitingTime="0.00" waitingCount="0" stopTime="0.00" timeLoss="8.11" rerouteNo="0" devices="tripinfo_straightS_24" vType="vehicleS_24" speedFactor="0.98" vaporized=""/>
    <tripinfo id="leftE_5" depart="7.00" departLane="edgeE_O_2" departPos="5.13" departSpeed="0.00" departDelay="2.00" arrival="97.00" arrivalLane="edgeS_I_2" arrivalPos="288.90" arrivalSpeed="17.74" duration="90.00" routeLength="1093.16" waitingTime="11.00" waitingCount="1" stopTime="0.00" timeLoss="27.58" rerouteNo="0" devices="tripinfo_leftE_5" vType="vehicleE_5" speedFactor="0.90" vaporized=""/>
    <tripinfo id="leftE_8" depart="10.00" departLane="edgeE_O_2" departPos="5.50" departSpeed="0.00" departDelay="3.00" arrival="100.00" arrivalLane="edgeS_I_2" arrivalPos="288.90" arrivalSpeed="19.25" duration="90.00" routeLength="1092.79" waitingTime="11.00" waitingCount="1" stopTime="0.00" timeLoss="31.19" rerouteNo="0" devices="tripinfo_leftE_8" vType="vehicleE_8" speedFactor="0.97" vaporized=""/>
    <tripinfo id="leftE_15" depart="16.00" departLane="edgeE_O_2" departPos="5.02" departSpeed="0.00" departDelay="0.00" arrival="101.00" arrivalLane="edgeS_I_2" arrivalPos="288.90" arrivalSpeed="21.62" duration="85.00" routeLength="1093.27" waitingTime="9.00" waitingCount="1" stopTime="0.00" timeLoss="30.20" rerouteNo="0" devices="tripinfo_leftE_15" vType="vehicleE_15" speedFactor="1.04" vaporized=""/>
    <tripinfo id="leftE_17" depart="21.00" departLane="edgeE_O_2" departPos="5.13" departSpeed="0.00" departDelay="2.00" arrival="104.00" arrivalLane="edgeS_I_2" arrivalPos="288.90" arrivalSpeed="23.89" duration="83.00" routeLength="1093.16" waitingTime="9.00" waitingCount="1" stopTime="0.00" timeLoss="35.68" rerouteNo="0" devices="tripinfo_leftE_17" vType="vehicleE_17" speedFactor="1.21" vaporized=""/>
    <tripinfo id="leftE_16" depart="19.00" departLane="edgeE_O_2" departPos="4.93" departSpeed="0.00" departDelay="1.00" arrival="106.00" arrivalLane="edgeS_I_2" arrivalPos="288.90" arrivalSpeed="20.59" duration="87.00" routeLength="1093.36" waitingTime="7.00" waitingCount="1" stopTime="0.00" timeLoss="30.05" rerouteNo="0" devices="tripinfo_leftE_16" vType="vehicleE_16" speedFactor="1.00" vaporized=""/>
    <tripinfo id="leftE_18" depart="24.00" departLane="edgeE_O_2" departPos="4.59" departSpeed="0.00" departDelay="4.00" arrival="108.00" arrivalLane="edgeS_I_2" arrivalPos="288.90" arrivalSpeed="20.01" duration="84.00" routeLength="1093.70" waitingTime="7.00" waitingCount="1" stopTime="0.00" timeLoss="28.16" rerouteNo="0" devices="tripinfo_leftE_18" vType="vehicleE_18" speedFactor="1.03" vaporized=""/>
    <tripinfo id="leftE_28" depart="29.00" departLane="edgeE_O_2" departPos="4.39" departSpeed="0.00" departDelay="5.00" arrival="109.00" arrivalLane="edgeS_I_2" arrivalPos="288.90" arrivalSpeed="21.70" duration="80.00" routeLength="1093.90" waitingTime="6.00" waitingCount="1" stopTime="0.00" timeLoss="28.39" rerouteNo="0" devices="tripinfo_leftE_28" vType="vehicleE_28" speedFactor="1.10" vaporized=""/>
    <tripinfo id="leftE_22" depart="26.00" departLane="edgeE_O_2" departPos="4.34" departSpeed="0.00" departDelay="4.00" arrival="114.00" arrivalLane="edgeS_I_2" arrivalPos="288.90" arrivalSpeed="17.95" duration="88.00" routeLength="1093.95" waitingTime="4.00" waitingCount="1" stopTime="0.00" timeLoss="22.87" rerouteNo="0" devices="tripinfo_leftE_22" vType="vehicleE_22" speedFactor="0.88" vaporized=""/>
    <tripinfo id="leftE_29" depart="31.00" departLane="edgeE_O_2" departPos="4.95" departSpeed="0.00" departDelay="6.00" arrival="116.00" arrivalLane="edgeS_I_2" arrivalPos="288.90" arrivalSpeed="20.79" duration="85.00" routeLength="1093.34" waitingTime="1.00" waitingCount="1" stopTime="0.00" timeLoss="31.36" rerouteNo="0" devices="tripinfo_leftE_29" vType="vehicleE_29" speedFactor="1.06" vaporized=""/>
    <tripinfo id="leftE_38" depart="34.00" departLane="edgeE_O_2" departPos="4.63" departSpeed="0.00" departDelay="0.00" arrival="117.00" arrivalLane="edgeS_I_2" arrivalPos="288.90" arrivalSpeed="20.27" duration="83.00" routeLength="1093.65" waitingTime="0.00" waitingCount="0" stopTime="0.00" timeLoss="29.72" rerouteNo="0" devices="tripinfo_leftE_38" vType="vehicleE_38" speedFactor="1.06" vaporized=""/>
    <tripinfo id="rightW_10" depart="12.00" departLane="edgeW_O_1" departPos="5.27" departSpeed="0.00" departDelay="0.00" arrival="120.00" arrivalLane="edgeS_I_1" arrivalPos="288.90" arrivalSpeed="19.11" duration="108.00" routeLength="882.69" waitingTime="51.00" waitingCount="1" stopTime="0.00" timeLoss="62.31" rerouteNo="0" devices="tripinfo_rightW_10" vType="vehicleW_10" speedFactor="0.99" vaporized=""/>
    <tripinfo id="leftW_19" depart="21.00" departLane="edgeW_O_2" departPos="4.56" departSpeed="0.00" departDelay="0.00" arrival="122.00" arrivalLane="edgeN_I_2" arrivalPos="988.90" arrivalSpeed="24.65" duration="101.00" routeLength="1593.73" waitingTime="10.00" waitingCount="1" stopTime="0.00" timeLoss="36.92" rerouteNo="0" devices="tripinfo_leftW_19" vType="vehicleW_19" speedFactor="1.24" vaporized=""/>
    <tripinfo id="rightW_31" depart="27.00" departLane="edgeW_O_1" departPos="4.49" departSpeed="0.00" departDelay="0.00" arrival="122.00" arrivalLane="edgeS_I_1" arrivalPos="288.90" arrivalSpeed="21.29" duration="95.00" routeLength="883.47" waitingTime="36.00" waitingCount="1" stopTime="0.00" timeLoss="52.36" rerouteNo="0" devices="tripinfo_rightW_31" vType="vehicleW_31" speedFactor="1.07" vaporized=""/>
    <tripinfo id="leftE_48" depart="46.00" departLane="edgeE_O_2" departPos="4.83" departSpeed="0.00" departDelay="1.00" arrival="124.00" arrivalLane="edgeS_I_2" arrivalPos="288.90" arrivalSpeed="17.38" duration="78.00" routeLength="1093.46" waitingTime="0.00" waitingCount="0" stopTime="0.00" timeLoss="13.60" rerouteNo="0" devices="tripinfo_leftE_48" vType="vehicleE_48" speedFactor="0.88" vaporized=""/>
    <tripinfo id="leftE_53" depart="60.00" departLane="edgeE_O_2" departPos="5.47" departSpeed="0.00" departDelay="0.00" arrival="126.00" arrivalLane="edgeS_I_2" arrivalPos="288.90" arrivalSpeed="22.90" duration="66.00" routeLength="1092.82" waitingTime="0.00" waitingCount="0" stopTime="0.00" timeLoss="18.08" rerouteNo="0" devices="tripinfo_leftE_53" vType="vehicleE_53" speedFactor="1.18" vaporized=""/>
    <tripinfo id="rightW_36" depart="32.00" departLane="edgeW_O_1" departPos="5.50" departSpeed="0.00" departDelay="0.00" arrival="128.00" arrivalLane="edgeS_I_1" arrivalPos="288.90" arrivalSpeed="17.82" duration="96.00" routeLength="882.46" waitingTime="28.00" waitingCount="1" stopTime="0.00" timeLoss="44.21" rerouteNo="0" devices="tripinfo_rightW_36" vType="vehicleW_36" speedFactor="0.89" vaporized=""/>
    <tripinfo id="leftE_54" depart="63.00" departLane="edgeE_O_2" departPos="4.91" departSpeed="0.00" departDelay="1.00" arrival="128.00" arrivalLane="edgeS_I_2" arrivalPos="288.90" arrivalSpeed="23.13" duration="65.00" routeLength="1093.38" waitingTime="0.00" waitingCount="0" stopTime="0.00" timeLoss="14.39" rerouteNo="0" devices="tripinfo_leftE_54" vType="vehicleE_54" speedFactor="1.13" vaporized=""/>
    <tripinfo id="leftW_25" depart="23.00" departLane="edgeW_O_2" departPos="4.84" departSpeed="0.00" departDelay="0.00" arrival="129.00" arrivalLane="edgeN_I_2" arrivalPos="988.90" arrivalSpeed="22.15" duration="106.00" routeLength="1593.45" waitingTime="10.00" waitingCount="1" stopTime="0.00" timeLoss="33.62" rerouteNo="0" devices="tripinfo_leftW_25" vType="vehicleW_25" speedFactor="1.10" vaporized=""/>
    <tripinfo id="rightW_45" depart="42.00" departLane="edgeW_O_1" departPos="5.02" departSpeed="0.00" departDelay="0.00" arrival="129.00" arrivalLane="edgeS_I_1" arrivalPos="288.90" arrivalSpeed="20.13" duration="87.00" routeLength="882.94" waitingTime="25.00" waitingCount="1" stopTime="0.00" timeLoss="39.81" rerouteNo="0" devices="tripinfo_rightW_45" vType="vehicleW_45" speedFactor="0.97" vaporized=""/>
    <tripinfo id="leftW_7" depart="7.00" departLane="edgeW_O_2" departPos="4.44" departSpeed="0.00" departDelay="0.00" arrival="130.00" arrivalLane="edgeN_I_1" arrivalPos="988.90" arrivalSpeed="18.29" duration="123.00" routeLength="1593.85" waitingTime="24.00" waitingCount="1" stopTime="0.00" timeLoss="37.38" rerouteNo="0" devices="tripinfo_leftW_7" vType="vehicleW_7" speedFactor="0.94" vaporized=""/>
    <tripinfo id="leftW_27" depart="26.00" departLane="edgeW_O_2" departPos="5.11" departSpeed="0.00" departDelay="2.00" arrival="140.00" arrivalLane="edgeN_I_1" arrivalPos="988.90" arrivalSpeed="18.91" duration="114.00" routeLength="1593.18" waitingTime="8.00" waitingCount="1" stopTime="0.00" timeLoss="27.08" rerouteNo="0" devices="tripinfo_leftW_27" vType="vehicleW_27" speedFactor="0.92" vaporized=""/>
    <tripinfo id="leftW_32" depart="28.00" departLane="edgeW_O_2" departPos="4.34" departSpeed="0.00" departDelay="0.00" arrival="141.00" arrivalLane="edgeN_I_2" arrivalPos="988.90" arrivalSpeed="19.31" duration="113.00" routeLength="1593.95" waitingTime="8.00" waitingCount="1" stopTime="0.00" timeLoss="31.12" rerouteNo="0" devices="tripinfo_leftW_32" vType="vehicleW_32" speedFactor="0.97" vaporized=""/>
    <tripinfo id="leftW_12" depart="14.00" departLane="edgeW_O_2" departPos="4.91" departSpeed="0.00" departDelay="0.00" arrival="143.00" arrivalLane="edgeN_I_1" arrivalPos="988.90" arrivalSpeed="16.21" duration="129.00" routeLength="1593.38" waitingTime="12.00" waitingCount="1" stopTime="0.00" timeLoss="27.31" rerouteNo="0" devices="tripinfo_leftW_12" vType="vehicleW_12" speedFactor="0.79" vaporized=""/>
    <tripinfo id="leftW_33" depart="31.00" departLane="edgeW_O_2" departPos="5.41" departSpeed="0.00" departDelay="2.00" arrival="143.00" arrivalLane="edgeN_I_2" arrivalPos="988.90" arrivalSpeed="20.33" duration="112.00" routeLength="1592.88" waitingTime="7.00" waitingCount="1" stopTime="0.00" timeLoss="33.06" rerouteNo="0" devices="tripinfo_leftW_33" vType="vehicleW_33" speedFactor="1.01" vaporized=""/>
    <tripinfo id="leftW_35" depart="34.00" departLane="edgeW_O_2" departPos="4.51" departSpeed="0.00" departDelay="3.00" arrival="145.00" arrivalLane="edgeN_I_2" arrivalPos="988.90" arrivalSpeed="21.29" duration="111.00" routeLength="1593.78" waitingTime="5.00" waitingCount="1" stopTime="0.00" timeLoss="38.47" rerouteNo="0" devices="tripinfo_leftW_35" vType="vehicleW_35" speedFactor="1.11" vaporized=""/>
    <tripinfo id="uturnE_46" depart="44.00" departLane="edgeE_O_2" departPos="4.38" departSpeed="0.00" departDelay="0.00" arrival="145.00" arrivalLane="edgeE_I_1" arrivalPos="788.90" arrivalSpeed="19.41" duration="101.00" routeLength="1578.09" waitingTime="0.00" waitingCount="0" stopTime="0.00" timeLoss="17.36" rerouteNo="0" devices="tripinfo_uturnE_46" vType="vehicleE_46" speedFactor="0.94" vaporized=""/>
    <tripinfo id="leftW_44" depart="41.00" departLane="edgeW_O_2" departPos="4.63" departSpeed="0.00" departDelay="0.00" arrival="147.00" arrivalLane="edgeN_I_1" arrivalPos="988.90" arrivalSpeed="22.86" duration="106.00" routeLength="1593.66" waitingTime="5.00" waitingCount="1" stopTime="0.00" timeLoss="35.52" rerouteNo="0" devices="tripinfo_leftW_44" vType="vehicleW_44" speedFactor="1.15" vaporized=""/>
    <tripinfo id="leftE_58" depart="67.00" departLane="edgeE_O_2" departPos="5.12" departSpeed="0.00" departDelay="0.00" arrival="147.00" arrivalLane="edgeS_I_2" arrivalPos="288.90" arrivalSpeed="15.55" duration="80.00" routeLength="1093.17" waitingTime="0.00" waitingCount="0" stopTime="0.00" timeLoss="8.66" rerouteNo="0" devices="tripinfo_leftE_58" vType="vehicleE_58" speedFactor="0.79" vaporized=""/>
    <tripinfo id="uturnW_59" depart="68.00" departLane="edgeW_O_2" departPos="5.07" departSpeed="0.00" departDelay="0.00" arrival="148.00" arrivalLane="edgeW_I_1" arrivalPos="588.90" arrivalSpeed="18.14" duration="80.00" routeLength="1177.40" waitingTime="0.00" waitingCount="0" stopTime="0.00" timeLoss="11.01" rerouteNo="0" devices="tripinfo_uturnW_59" vType="vehicleW_59" speedFactor="0.87" vaporized=""/>
    <tripinfo id="leftW_49" depart="48.00" departLane="edgeW_O_2" departPos="4.78" departSpeed="0.00" departDelay="0.00" arrival="150.00" arrivalLane="edgeN_I_1" arrivalPos="988.90" arrivalSpeed="19.31" duration="102.00" routeLength="1593.51" waitingTime="0.00" waitingCount="0" stopTime="0.00" timeLoss="16.38" rerouteNo="0" devices="tripinfo_leftW_49" vType="vehicleW_49" speedFactor="0.94" vaporized=""/>
    <tripinfo id="leftE_61" depart="74.00" departLane="edgeE_O_2" departPos="4.68" departSpeed="0.00" departDelay="0.00" arrival="150.00" arrivalLane="edgeS_I_2" arrivalPos="288.90" arrivalSpeed="17.43" duration="76.00" routeLength="1093.61" waitingTime="0.00" waitingCount="0" stopTime="0.00" timeLoss="10.59" rerouteNo="0" devices="tripinfo_leftE_61" vType="vehicleE_61" speedFactor="0.87" vaporized=""/>
    <tripinfo id="rightE_2" depart="1.00" departLane="edgeE_O_1" departPos="5.18" departSpeed="0.00" departDelay="0.00" arrival="151.00" arrivalLane="edgeN_I_2" arrivalPos="988.90" arrivalSpeed="23.11" duration="150.00" routeLength="1782.78" waitingTime="52.00" waitingCount="1" stopTime="0.00" timeLoss="69.87" rerouteNo="0" devices="tripinfo_rightE_2" vType="vehicleE_2" speedFactor="1.12" vaporized=""/>
    <tripinfo id="leftE_62" depart="77.00" departLane="edgeE_O_2" departPos="5.17" departSpeed="0.00" departDelay="2.00" arrival="151.00" arrivalLane="edgeS_I_2" arrivalPos="288.90" arrivalSpeed="19.26" duration="74.00" routeLength="1093.12" waitingTime="0.00" waitingCount="0" stopTime="0.00" timeLoss="14.14" rerouteNo="0" devices="tripinfo_leftE_62" vType="vehicleE_62" speedFactor="0.94" vaporized=""/>
    <tripinfo id="leftE_63" depart="80.00" departLane="edgeE_O_2" departPos="4.52" departSpeed="0.00" departDelay="3.00" arrival="153.00" arrivalLane="edgeS_I_2" arrivalPos="288.90" arrivalSpeed="22.08" duration="73.00" routeLength="1093.77" waitingTime="0.00" waitingCount="0" stopTime="0.00" timeLoss="21.10" rerouteNo="0" devices="tripinfo_leftE_63" vType="vehicleE_63" speedFactor="1.10" vaporized=""/>
    <tripinfo id="leftE_68" depart="85.00" departLane="edgeE_O_2" departPos="5.11" departSpeed="0.00" departDelay="0.00" arrival="158.00" arrivalLane="edgeS_I_2" arrivalPos="288.90" arrivalSpeed="18.05" duration="73.00" routeLength="1093.17" waitingTime="0.00" waitingCount="0" stopTime="0.00" timeLoss="9.93" rerouteNo="0" devices="tripinfo_leftE_68" vType="vehicleE_68" speedFactor="0.90" vaporized=""/>
    <tripinfo id="leftE_70" depart="89.00" departLane="edgeE_O_2" departPos="4.50" departSpeed="0.00" departDelay="0.00" arrival="160.00" arrivalLane="edgeS_I_2" arrivalPos="288.90" arrivalSpeed="19.91" duration="71.00" routeLength="1093.78" waitingTime="0.00" waitingCount="0" stopTime="0.00" timeLoss="12.50" rerouteNo="0" devices="tripinfo_leftE_70" vType="vehicleE_70" speedFactor="0.97" vaporized=""/>
    <tripinfo id="leftE_71" depart="92.00" departLane="edgeE_O_2" departPos="5.14" departSpeed="0.00" departDelay="0.00" arrival="163.00" arrivalLane="edgeS_I_2" arrivalPos="288.90" arrivalSpeed="17.63" duration="71.00" routeLength="1093.15" waitingTime="0.00" waitingCount="0" stopTime="0.00" timeLoss="9.49" rerouteNo="0" devices="tripinfo_leftE_71" vType="vehicleE_71" speedFactor="0.93" vaporized=""/>
    <tripinfo id="rightW_79" depart="111.00" departLane="edgeW_O_1" departPos="4.15" departSpeed="0.00" departDelay="0.00" arrival="167.00" arrivalLane="edgeS_I_1" arrivalPos="288.90" arrivalSpeed="19.49" duration="56.00" routeLength="883.81" waitingTime="0.00" waitingCount="0" stopTime="0.00" timeLoss="9.23" rerouteNo="0" devices="tripinfo_rightW_79" vType="vehicleW_79" speedFactor="0.98" vaporized=""/>
    <tripinfo id="rightE_40" depart="37.00" departLane="edgeE_O_1" departPos="4.42" departSpeed="0.00" departDelay="0.00" arrival="168.00" arrivalLane="edgeN_I_1" arrivalPos="988.90" arrivalSpeed="17.62" duration="131.00" routeLength="1783.54" waitingTime="9.00" waitingCount="1" stopTime="0.00" timeLoss="24.36" rerouteNo="0" devices="tripinfo_rightE_40" vType="vehicleE_40" speedFactor="0.85" vaporized=""/>
    <tripinfo id="leftE_72" depart="94.00" departLane="edgeE_O_2" departPos="4.79" departSpeed="0.00" departDelay="1.00" arrival="168.00" arrivalLane="edgeS_I_2" arrivalPos="288.90" arrivalSpeed="17.10" duration="74.00" routeLength="1093.50" waitingTime="0.00" waitingCount="0" stopTime="0.00" timeLoss="9.14" rerouteNo="0" devices="tripinfo_leftE_72" vType="vehicleE_72" speedFactor="0.87" vaporized=""/>
    <tripinfo id="leftE_73" depart="97.00" departLane="edgeE_O_2" departPos="4.68" departSpeed="0.00" departDelay="2.00" arrival="170.00" arrivalLane="edgeS_I_2" arrivalPos="288.90" arrivalSpeed="18.71" duration="73.00" routeLength="1093.61" waitingTime="0.00" waitingCount="0" stopTime="0.00" timeLoss="13.24" rerouteNo="0" devices="tripinfo_leftE_73" vType="vehicleE_73" speedFactor="0.95" vaporized=""/>
    <tripinfo id="leftW_77" depart="107.00" departLane="edgeW_O_2" departPos="4.57" departSpeed="0.00" departDelay="0.00" arrival="190.00" arrivalLane="edgeN_I_2" arrivalPos="988.90" arrivalSpeed="23.69" duration="83.00" routeLength="1593.72" waitingTime="0.00" waitingCount="0" stopTime="0.00" timeLoss="14.01" rerouteNo="0" devices="tripinfo_leftW_77" vType="vehicleW_77" speedFactor="1.16" vaporized=""/>
    <tripinfo id="uturnW_85" depart="118.00" departLane="edgeW_O_2" departPos="5.68" departSpeed="0.00" departDelay="0.00" arrival="190.00" arrivalLane="edgeW_I_1" arrivalPos="588.90" arrivalSpeed="19.83" duration="72.00" routeLength="1176.79" waitingTime="0.00" waitingCount="0" stopTime="0.00" timeLoss="11.81" rerouteNo="0" devices="tripinfo_uturnW_85" vType="vehicleW_85" speedFactor="0.97" vaporized=""/>
    <tripinfo id="leftE_87" depart="121.00" departLane="edgeE_O_2" departPos="4.83" departSpeed="0.00" departDelay="0.00" arrival="192.00" arrivalLane="edgeS_I_2" arrivalPos="288.90" arrivalSpeed="17.26" duration="71.00" routeLength="1093.46" waitingTime="0.00" waitingCount="0" stopTime="0.00" timeLoss="8.11" rerouteNo="0" devices="tripinfo_leftE_87" vType="vehicleE_87" speedFactor="0.91" vaporized=""/>
    <tripinfo id="rightE_60" depart="71.00" departLane="edgeE_O_1" departPos="4.39" departSpeed="0.00" departDelay="0.00" arrival="196.00" arrivalLane="edgeN_I_1" arrivalPos="988.90" arrivalSpeed="14.82" duration="125.00" routeLength="1783.57" waitingTime="0.00" waitingCount="0" stopTime="0.00" timeLoss="10.23" rerouteNo="0" devices="tripinfo_rightE_60" vType="vehicleE_60" speedFactor="0.78" vaporized=""/>
    <tripinfo id="leftE_88" depart="125.00" departLane="edgeE_O_2" departPos="5.26" departSpeed="0.00" departDelay="0.00" arrival="199.00" arrivalLane="edgeS_I_2" arrivalPos="288.90" arrivalSpeed="17.68" duration="74.00" routeLength="1093.03" waitingTime="0.00" waitingCount="0" stopTime="0.00" timeLoss="10.02" rerouteNo="0" devices="tripinfo_leftE_88" vType="vehicleE_88" speedFactor="0.89" vaporized=""/>
    <tripinfo id="leftW_81" depart="114.00" departLane="edgeW_O_2" departPos="5.06" departSpeed="0.00" departDelay="0.00" arrival="201.00" arrivalLane="edgeN_I_2" arrivalPos="988.90" arrivalSpeed="20.55" duration="87.00" routeLength="1593.23" waitingTime="0.00" waitingCount="0" stopTime="0.00" timeLoss="9.02" rerouteNo="0" devices="tripinfo_leftW_81" vType="vehicleW_81" speedFactor="1.03" vaporized=""/>
    <tripinfo id="leftW_75" depart="100.00" departLane="edgeW_O_2" departPos="5.35" departSpeed="0.00" departDelay="0.00" arrival="202.00" arrivalLane="edgeN_I_1" arrivalPos="988.90" arrivalSpeed="17.43" duration="102.00" routeLength="1592.93" waitingTime="0.00" waitingCount="0" stopTime="0.00" timeLoss="10.13" rerouteNo="0" devices="tripinfo_leftW_75" vType="vehicleW_75" speedFactor="0.88" vaporized=""/>
    <tripinfo id="straightN_14" depart="16.00" departLane="edgeN_O_1" departPos="4.09" departSpeed="0.00" departDelay="0.00" arrival="214.00" arrivalLane="edgeS_I_1" arrivalPos="288.90" arrivalSpeed="19.57" duration="198.00" routeLength="1295.91" waitingTime="123.00" waitingCount="1" stopTime="0.00" timeLoss="133.96" rerouteNo="0" devices="tripinfo_straightN_14" vType="vehicleN_14" speedFactor="0.97" vaporized=""/>
    <tripinfo id="straightN_30" depart="30.00" departLane="edgeN_O_2" departPos="4.09" departSpeed="0.00" departDelay="4.00" arrival="216.00" arrivalLane="edgeS_I_1" arrivalPos="288.90" arrivalSpeed="19.82" duration="186.00" routeLength="1295.91" waitingTime="105.00" waitingCount="1" stopTime="0.00" timeLoss="122.95" rerouteNo="0" devices="tripinfo_straightN_30" vType="vehicleN_30" speedFactor="0.97" vaporized=""/>
    <tripinfo id="straightN_41" depart="38.00" departLane="edgeN_O_1" departPos="5.23" departSpeed="0.00" departDelay="0.00" arrival="219.00" arrivalLane="edgeS_I_1" arrivalPos="288.90" arrivalSpeed="18.37" duration="181.00" routeLength="1294.77" waitingTime="99.00" waitingCount="1" stopTime="0.00" timeLoss="114.65" rerouteNo="0" devices="tripinfo_straightN_41" vType="vehicleN_41" speedFactor="0.93" vaporized=""/>
    <tripinfo id="straightN_43" depart="40.00" departLane="edgeN_O_2" departPos="4.54" departSpeed="0.00" departDelay="0.00" arrival="220.00" arrivalLane="edgeS_I_1" arrivalPos="288.90" arrivalSpeed="18.58" duration="180.00" routeLength="1295.46" waitingTime="95.00" waitingCount="1" stopTime="0.00" timeLoss="113.84" rerouteNo="0" devices="tripinfo_straightN_43" vType="vehicleN_43" speedFactor="0.93" vaporized=""/>
    <tripinfo id="leftW_95" depart="136.00" departLane="edgeW_O_2" departPos="5.44" departSpeed="0.00" departDelay="0.00" arrival="221.00" arrivalLane="edgeN_I_1" arrivalPos="988.90" arrivalSpeed="21.69" duration="85.00" routeLength="1592.85" waitingTime="0.00" waitingCount="0" stopTime="0.00" timeLoss="10.07" rerouteNo="0" devices="tripinfo_leftW_95" vType="vehicleW_95" speedFactor="1.08" vaporized=""/>
    <tripinfo id="straightN_50" depart="53.00" departLane="edgeN_O_1" departPos="4.44" departSpeed="0.00" departDelay="0.00" arrival="222.00" arrivalLane="edgeS_I_1" arrivalPos="288.90" arrivalSpeed="19.70" duration="169.00" routeLength="1295.56" waitingTime="85.00" waitingCount="1" stopTime="0.00" timeLoss="104.41" rerouteNo="0" devices="tripinfo_straightN_50" vType="vehicleN_50" speedFactor="0.95" vaporized=""/>
    <tripinfo id="straightN_52" depart="56.00" departLane="edgeN_O_2" departPos="5.28" departSpeed="0.00" departDelay="0.00" arrival="224.00" arrivalLane="edgeS_I_1" arrivalPos="288.90" arrivalSpeed="17.79" duration="168.00" routeLength="1294.72" waitingTime="84.00" waitingCount="2" stopTime="0.00" timeLoss="99.77" rerouteNo="0" devices="tripinfo_straightN_52" vType="vehicleN_52" speedFactor="0.90" vaporized=""/>
    <tripinfo id="straightN_69" depart="86.00" departLane="edgeN_O_2" departPos="5.17" departSpeed="0.00" departDelay="0.00" arrival="227.00" arrivalLane="edgeS_I_1" arrivalPos="288.90" arrivalSpeed="23.75" duration="141.00" routeLength="1294.84" waitingTime="61.00" waitingCount="1" stopTime="0.00" timeLoss="87.07" rerouteNo="0" devices="tripinfo_straightN_69" vType="vehicleN_69" speedFactor="1.15" vaporized=""/>
    <tripinfo id="straightN_82" depart="115.00" departLane="edgeN_O_1" departPos="5.48" departSpeed="0.00" departDelay="0.00" arrival="229.00" arrivalLane="edgeS_I_1" arrivalPos="288.90" arrivalSpeed="21.18" duration="114.00" routeLength="1294.52" waitingTime="33.00" waitingCount="2" stopTime="0.00" timeLoss="54.02" rerouteNo="0" devices="tripinfo_straightN_82" vType="vehicleN_82" speedFactor="1.04" vaporized=""/>
    <tripinfo id="straightN_86" depart="120.00" departLane="edgeN_O_1" departPos="4.59" departSpeed="0.00" departDelay="0.00" arrival="230.00" arrivalLane="edgeS_I_1" arrivalPos="288.90" arrivalSpeed="20.53" duration="110.00" routeLength="1295.41" waitingTime="29.00" waitingCount="2" stopTime="0.00" timeLoss="48.78" rerouteNo="0" devices="tripinfo_straightN_86" vType="vehicleN_86" speedFactor="1.01" vaporized=""/>