<?xml version="1.0" encoding="UTF-8"?>

<!-- generated on 2021-10-23 04:06:19 by Eclipse SUMO sumo Version 1.10.0
<configuration xmlns:xsi="http://www.w3.org/2001/XMLSchema-instance" xsi:noNamespaceSchemaLocation="http://sumo.dlr.de/xsd/sumoConfiguration.xsd">

    <input>
        <net-file value="data5/cross.net.xml"/>
        <route-files value="data5/cross.rou.xml"/>
        <additional-files value="data5/cross.tls.xml"/>
    </input>

    <output>
        <tripinfo-output value="data5/tripinfo.xml"/>
        <tripinfo-output.write-unfinished value="true"/>
    </output>

    <time>
        <begin value="0"/>
        <step-length value="1"/>
    </time>

    <processing>
        <threads value="5"/>
        <time-to-teleport value="-1"/>
    </processing>

    <report>
        <verbose value="true"/>
        <no-warnings value="true"/>
        <no-step-log value="true"/>
    </report>

    <traci_server>
        <remote-port value="54653"/>
    </traci_server>

    <gui_only>
        <gui-settings-file value="data5/viewsettings.xml"/>
        <tracker-interval value="1"/>
    </gui_only>

</configuration>
-->

<tripinfos xmlns:xsi="http://www.w3.org/2001/XMLSchema-instance" xsi:noNamespaceSchemaLocation="http://sumo.dlr.de/xsd/tripinfo_file.xsd">
    <tripinfo id="rightE_14" depart="7.00" departLane="edgeE_O_2" departPos="5.19" departSpeed="0.00" departDelay="0.00" arrival="56.00" arrivalLane="edgeN_I_1" arrivalPos="379.30" arrivalSpeed="22.72" duration="49.00" routeLength="863.57" waitingTime="0.00" waitingCount="0" stopTime="0.00" timeLoss="12.29" rerouteNo="0" devices="tripinfo_rightE_14" vType="vehicleE_14" speedFactor="1.07" vaporized=""/>
    <tripinfo id="rightW_8" depart="5.00" departLane="edgeW_O_2" departPos="4.93" departSpeed="0.00" departDelay="2.00" arrival="64.00" arrivalLane="edgeS_I_1" arrivalPos="479.30" arrivalSpeed="23.14" duration="59.00" routeLength="1066.51" waitingTime="0.00" waitingCount="0" stopTime="0.00" timeLoss="16.44" rerouteNo="0" devices="tripinfo_rightW_8" vType="vehicleW_8" speedFactor="1.12" vaporized=""/>
    <tripinfo id="rightE_29" depart="17.00" departLane="edgeE_O_2" departPos="5.28" departSpeed="0.00" departDelay="0.00" arrival="65.00" arrivalLane="edgeN_I_1" arrivalPos="379.30" arrivalSpeed="20.93" duration="48.00" routeLength="866.16" waitingTime="0.00" waitingCount="0" stopTime="0.00" timeLoss="8.83" rerouteNo="0" devices="tripinfo_rightE_29" vType="vehicleE_29" speedFactor="0.99" vaporized=""/>
    <tripinfo id="straightE_1" depart="0.00" departLane="edgeE_O_5" departPos="4.40" departSpeed="0.00" departDelay="0.00" arrival="66.00" arrivalLane="edgeW_I_2" arrivalPos="579.30" arrivalSpeed="22.83" duration="66.00" routeLength="1095.60" waitingTime="5.00" waitingCount="1" stopTime="0.00" timeLoss="21.59" rerouteNo="0" devices="tripinfo_straightE_1" vType="vehicleE_1" speedFactor="1.13" vaporized=""/>
    <tripinfo id="straightE_13" depart="6.00" departLane="edgeE_O_5" departPos="5.19" departSpeed="0.00" departDelay="0.00" arrival="66.00" arrivalLane="edgeW_I_3" arrivalPos="579.30" arrivalSpeed="21.23" duration="60.00" routeLength="1094.81" waitingTime="0.00" waitingCount="0" stopTime="0.00" timeLoss="13.79" rerouteNo="0" devices="tripinfo_straightE_13" vType="vehicleE_13" speedFactor="1.07" vaporized=""/>
    <tripinfo id="straightW_18" depart="10.00" departLane="edgeW_O_2" departPos="4.99" departSpeed="0.00" departDelay="0.00" arrival="66.00" arrivalLane="edgeE_I_3" arrivalPos="479.30" arrivalSpeed="21.18" duration="56.00" routeLength="1095.01" waitingTime="0.00" waitingCount="0" stopTime="0.00" timeLoss="9.89" rerouteNo="0" devices="tripinfo_straightW_18" vType="vehicleW_18" speedFactor="1.06" vaporized=""/>
    <tripinfo id="straightW_6" depart="2.00" departLane="edgeW_O_2" departPos="4.50" departSpeed="0.00" departDelay="0.00" arrival="67.00" arrivalLane="edgeE_I_1" arrivalPos="479.30" arrivalSpeed="16.04" duration="65.00" routeLength="1095.50" waitingTime="0.00" waitingCount="0" stopTime="0.00" timeLoss="7.74" rerouteNo="0" devices="tripinfo_straightW_6" vType="vehicleW_6" speedFactor="0.84" vaporized=""/>
    <tripinfo id="straightW_23" depart="14.00" departLane="edgeW_O_4" departPos="4.71" departSpeed="0.00" departDelay="0.00" arrival="68.00" arrivalLane="edgeE_I_4" arrivalPos="479.30" arrivalSpeed="21.81" duration="54.00" routeLength="1095.29" waitingTime="0.00" waitingCount="0" stopTime="0.00" timeLoss="8.59" rerouteNo="0" devices="tripinfo_straightW_23" vType="vehicleW_23" speedFactor="1.08" vaporized=""/>
    <tripinfo id="straightE_4" depart="2.00" departLane="edgeE_O_5" departPos="4.06" departSpeed="0.00" departDelay="1.00" arrival="69.00" arrivalLane="edgeW_I_4" arrivalPos="579.30" arrivalSpeed="20.04" duration="67.00" routeLength="1095.94" waitingTime="2.00" waitingCount="1" stopTime="0.00" timeLoss="23.47" rerouteNo="0" devices="tripinfo_straightE_4" vType="vehicleE_4" speedFactor="1.14" vaporized=""/>
    <tripinfo id="straightE_21" depart="13.00" departLane="edgeE_O_2" departPos="4.11" departSpeed="0.00" departDelay="0.00" arrival="69.00" arrivalLane="edgeW_I_5" arrivalPos="579.30" arrivalSpeed="20.28" duration="56.00" routeLength="1095.89" waitingTime="0.00" waitingCount="0" stopTime="0.00" timeLoss="8.56" rerouteNo="0" devices="tripinfo_straightE_21" vType="vehicleE_21" speedFactor="1.05" vaporized=""/>
    <tripinfo id="rightW_34" depart="19.00" departLane="edgeW_O_2" departPos="4.41" departSpeed="0.00" departDelay="0.00" arrival="71.00" arrivalLane="edgeS_I_1" arrivalPos="479.30" arrivalSpeed="23.20" duration="52.00" routeLength="1067.03" waitingTime="0.00" waitingCount="0" stopTime="0.00" timeLoss="11.52" rerouteNo="0" devices="tripinfo_rightW_34" vType="vehicleW_34" speedFactor="1.15" vaporized=""/>
    <tripinfo id="straightW_41" depart="23.00" departLane="edgeW_O_3" departPos="5.23" departSpeed="0.00" departDelay="0.00" arrival="72.00" arrivalLane="edgeE_I_4" arrivalPos="479.30" arrivalSpeed="22.26" duration="49.00" routeLength="1094.77" waitingTime="0.00" waitingCount="0" stopTime="0.00" timeLoss="6.17" rerouteNo="0" devices="tripinfo_straightW_41" vType="vehicleW_41" speedFactor="1.14" vaporized=""/>
    <tripinfo id="straightE_7" depart="2.00" departLane="edgeE_O_4" departPos="5.46" departSpeed="0.00" departDelay="0.00" arrival="73.00" arrivalLane="edgeW_I_1" arrivalPos="579.30" arrivalSpeed="18.36" duration="71.00" routeLength="1094.54" waitingTime="1.00" waitingCount="1" stopTime="0.00" timeLoss="16.77" rerouteNo="0" devices="tripinfo_straightE_7" vType="vehicleE_7" speedFactor="0.91" vaporized=""/>
    <tripinfo id="straightE_27" depart="18.00" departLane="edgeE_O_5" departPos="5.32" departSpeed="0.00" departDelay="2.00" arrival="74.00" arrivalLane="edgeW_I_4" arrivalPos="579.30" arrivalSpeed="19.95" duration="56.00" routeLength="1094.68" waitingTime="0.00" waitingCount="0" stopTime="0.00" timeLoss="7.86" rerouteNo="0" devices="tripinfo_straightE_27" vType="vehicleE_27" speedFactor="1.03" vaporized=""/>
    <tripinfo id="rightE_45" depart="27.00" departLane="edgeE_O_1" departPos="4.18" departSpeed="0.00" departDelay="0.00" arrival="74.00" arrivalLane="edgeN_I_1" arrivalPos="379.30" arrivalSpeed="19.20" duration="47.00" routeLength="867.26" waitingTime="0.00" waitingCount="0" stopTime="0.00" timeLoss="7.61" rerouteNo="0" devices="tripinfo_rightE_45" vType="vehicleE_45" speedFactor="0.98" vaporized=""/>
    <tripinfo id="rightE_48" depart="29.00" departLane="edgeE_O_1" departPos="4.45" departSpeed="0.00" departDelay="0.00" arrival="77.00" arrivalLane="edgeN_I_1" arrivalPos="379.30" arrivalSpeed="21.56" duration="48.00" routeLength="866.99" waitingTime="0.00" waitingCount="0" stopTime="0.00" timeLoss="10.84" rerouteNo="0" devices="tripinfo_rightE_48" vType="vehicleE_48" speedFactor="1.05" vaporized=""/>
    <tripinfo id="straightE_32" depart="18.00" departLane="edgeE_O_3" departPos="5.51" departSpeed="0.00" departDelay="0.00" arrival="79.00" arrivalLane="edgeW_I_3" arrivalPos="579.30" arrivalSpeed="18.61" duration="61.00" routeLength="1094.49" waitingTime="0.00" waitingCount="0" stopTime="0.00" timeLoss="7.73" rerouteNo="0" devices="tripinfo_straightE_32" vType="vehicleE_32" speedFactor="0.94" vaporized=""/>
    <tripinfo id="rightE_51" depart="30.00" departLane="edgeE_O_2" departPos="4.57" departSpeed="0.00" departDelay="0.00" arrival="80.00" arrivalLane="edgeN_I_1" arrivalPos="379.30" arrivalSpeed="22.02" duration="50.00" routeLength="866.87" waitingTime="0.00" waitingCount="0" stopTime="0.00" timeLoss="13.32" rerouteNo="0" devices="tripinfo_rightE_51" vType="vehicleE_51" speedFactor="1.07" vaporized=""/>
    <tripinfo id="straightE_25" depart="15.00" departLane="edgeE_O_5" departPos="4.93" departSpeed="0.00" departDelay="0.00" arrival="81.00" arrivalLane="edgeW_I_1" arrivalPos="579.30" arrivalSpeed="16.60" duration="66.00" routeLength="1095.07" waitingTime="0.00" waitingCount="0" stopTime="0.00" timeLoss="7.95" rerouteNo="0" devices="tripinfo_straightE_25" vType="vehicleE_25" speedFactor="0.86" vaporized=""/>
    <tripinfo id="straightE_36" depart="21.00" departLane="edgeE_O_5" departPos="4.11" departSpeed="0.00" departDelay="1.00" arrival="82.00" arrivalLane="edgeW_I_4" arrivalPos="579.30" arrivalSpeed="18.88" duration="61.00" routeLength="1095.89" waitingTime="0.00" waitingCount="0" stopTime="0.00" timeLoss="8.24" rerouteNo="0" devices="tripinfo_straightE_36" vType="vehicleE_36" speedFactor="0.94" vaporized=""/>
    <tripinfo id="rightW_35" depart="22.00" departLane="edgeW_O_2" departPos="4.98" departSpeed="0.00" departDelay="2.00" arrival="83.00" arrivalLane="edgeS_I_1" arrivalPos="479.30" arrivalSpeed="19.27" duration="61.00" routeLength="1066.46" waitingTime="0.00" waitingCount="0" stopTime="0.00" timeLoss="11.94" rerouteNo="0" devices="tripinfo_rightW_35" vType="vehicleW_35" speedFactor="0.95" vaporized=""/>
    <tripinfo id="straightW_42" depart="25.00" departLane="edgeW_O_2" departPos="4.53" departSpeed="0.00" departDelay="1.00" arrival="87.00" arrivalLane="edgeE_I_2" arrivalPos="479.30" arrivalSpeed="17.70" duration="62.00" routeLength="1095.47" waitingTime="0.00" waitingCount="0" stopTime="0.00" timeLoss="6.63" rerouteNo="0" devices="tripinfo_straightW_42" vType="vehicleW_42" speedFactor="0.89" vaporized=""/>
    <tripinfo id="rightW_38" depart="22.00" departLane="edgeW_O_1" departPos="5.30" departSpeed="0.00" departDelay="0.00" arrival="88.00" arrivalLane="edgeS_I_1" arrivalPos="479.30" arrivalSpeed="18.76" duration="66.00" routeLength="1063.46" waitingTime="0.00" waitingCount="0" stopTime="0.00" timeLoss="12.44" rerouteNo="0" devices="tripinfo_rightW_38" vType="vehicleW_38" speedFactor="0.89" vaporized=""/>
    <tripinfo id="rightE_55" depart="33.00" departLane="edgeE_O_1" departPos="5.08" departSpeed="0.00" departDelay="0.00" arrival="89.00" arrivalLane="edgeN_I_1" arrivalPos="379.30" arrivalSpeed="17.49" duration="56.00" routeLength="866.36" waitingTime="0.00" waitingCount="0" stopTime="0.00" timeLoss="11.42" rerouteNo="0" devices="tripinfo_rightE_55" vType="vehicleE_55" speedFactor="0.87" vaporized=""/>
    <tripinfo id="rightE_60" depart="39.00" departLane="edgeE_O_2" departPos="4.84" departSpeed="0.00" departDelay="0.00" arrival="91.00" arrivalLane="edgeN_I_1" arrivalPos="379.30" arrivalSpeed="18.83" duration="52.00" routeLength="863.92" waitingTime="0.00" waitingCount="0" stopTime="0.00" timeLoss="11.42" rerouteNo="0" devices="tripinfo_rightE_60" vType="vehicleE_60" speedFactor="0.93" vaporized=""/>
    <tripinfo id="straightE_65" depart="42.00" departLane="edgeE_O_3" departPos="4.67" departSpeed="0.00" departDelay="0.00" arrival="92.00" arrivalLane="edgeW_I_5" arrivalPos="579.30" arrivalSpeed="23.11" duration="50.00" routeLength="1095.33" waitingTime="0.00" waitingCount="0" stopTime="0.00" timeLoss="6.72" rerouteNo="0" devices="tripinfo_straightE_65" vType="vehicleE_65" speedFactor="1.17" vaporized=""/>
    <tripinfo id="straightE_62" depart="40.00" departLane="edgeE_O_5" departPos="4.94" departSpeed="0.00" departDelay="0.00" arrival="97.00" arrivalLane="edgeW_I_2" arrivalPos="579.30" arrivalSpeed="18.73" duration="57.00" routeLength="1095.05" waitingTime="0.00" waitingCount="0" stopTime="0.00" timeLoss="6.54" rerouteNo="0" devices="tripinfo_straightE_62" vType="vehicleE_62" speedFactor="0.98" vaporized=""/>
    <tripinfo id="rightE_75" depart="48.00" departLane="edgeE_O_2" departPos="5.11" departSpeed="0.00" departDelay="0.00" arrival="97.00" arrivalLane="edgeN_I_1" arrivalPos="379.30" arrivalSpeed="20.32" duration="49.00" routeLength="863.65" waitingTime="0.00" waitingCount="0" stopTime="0.00" timeLoss="9.61" rerouteNo="0" devices="tripinfo_rightE_75" vType="vehicleE_75" speedFactor="0.96" vaporized=""/>
    <tripinfo id="straightE_66" depart="44.00" departLane="edgeE_O_4" departPos="5.52" departSpeed="0.00" departDelay="0.00" arrival="99.00" arrivalLane="edgeW_I_5" arrivalPos="579.30" arrivalSpeed="21.39" duration="55.00" routeLength="1094.48" waitingTime="0.00" waitingCount="0" stopTime="0.00" timeLoss="8.88" rerouteNo="0" devices="tripinfo_straightE_66" vType="vehicleE_66" speedFactor="1.08" vaporized=""/>
    <tripinfo id="straightW_69" depart="45.00" departLane="edgeW_O_3" departPos="5.68" departSpeed="0.00" departDelay="0.00" arrival="99.00" arrivalLane="edgeE_I_5" arrivalPos="479.30" arrivalSpeed="21.53" duration="54.00" routeLength="1094.32" waitingTime="0.00" waitingCount="0" stopTime="0.00" timeLoss="9.13" rerouteNo="0" devices="tripinfo_straightW_69" vType="vehicleW_69" speedFactor="1.09" vaporized=""/>
    <tripinfo id="rightE_84" depart="51.00" departLane="edgeE_O_1" departPos="4.54" departSpeed="0.00" departDelay="0.00" arrival="103.00" arrivalLane="edgeN_I_1" arrivalPos="379.30" arrivalSpeed="17.48" duration="52.00" routeLength="864.22" waitingTime="0.00" waitingCount="0" stopTime="0.00" timeLoss="9.02" rerouteNo="0" devices="tripinfo_rightE_84" vType="vehicleE_84" speedFactor="0.89" vaporized=""/>
    <tripinfo id="straightW_78" depart="49.00" departLane="edgeW_O_4" departPos="5.31" departSpeed="0.00" departDelay="0.00" arrival="104.00" arrivalLane="edgeE_I_4" arrivalPos="479.30" arrivalSpeed="18.83" duration="55.00" routeLength="1094.69" waitingTime="0.00" waitingCount="0" stopTime="0.00" timeLoss="6.63" rerouteNo="0" devices="tripinfo_straightW_78" vType="vehicleW_78" speedFactor="1.00" vaporized=""/>
    <tripinfo id="rightE_79" depart="50.00" departLane="edgeE_O_2" departPos="4.31" departSpeed="0.00" departDelay="1.00" arrival="104.00" arrivalLane="edgeN_I_2" arrivalPos="379.30" arrivalSpeed="20.45" duration="54.00" routeLength="864.45" waitingTime="0.00" waitingCount="0" stopTime="0.00" timeLoss="14.43" rerouteNo="0" devices="tripinfo_rightE_79" vType="vehicleE_79" speedFactor="0.97" vaporized=""/>
    <tripinfo id="straightW_72" depart="46.00" departLane="edgeW_O_5" departPos="5.01" departSpeed="0.00" departDelay="0.00" arrival="105.00" arrivalLane="edgeE_I_2" arrivalPos="479.30" arrivalSpeed="17.33" duration="59.00" routeLength="1094.99" waitingTime="0.00" waitingCount="0" stopTime="0.00" timeLoss="5.68" rerouteNo="0" devices="tripinfo_straightW_72" vType="vehicleW_72" speedFactor="0.91" vaporized=""/>
    <tripinfo id="straightE_70" depart="45.00" departLane="edgeE_O_3" departPos="4.26" departSpeed="0.00" departDelay="0.00" arrival="106.00" arrivalLane="edgeW_I_1" arrivalPos="579.30" arrivalSpeed="18.36" duration="61.00" routeLength="1095.74" waitingTime="0.00" waitingCount="0" stopTime="0.00" timeLoss="7.93" rerouteNo="0" devices="tripinfo_straightE_70" vType="vehicleE_70" speedFactor="0.94" vaporized=""/>
    <tripinfo id="straightW_90" depart="54.00" departLane="edgeW_O_3" departPos="4.97" departSpeed="0.00" departDelay="0.00" arrival="108.00" arrivalLane="edgeE_I_3" arrivalPos="479.30" arrivalSpeed="20.63" duration="54.00" routeLength="1095.03" waitingTime="0.00" waitingCount="0" stopTime="0.00" timeLoss="7.41" rerouteNo="0" devices="tripinfo_straightW_90" vType="vehicleW_90" speedFactor="1.05" vaporized=""/>
    <tripinfo id="rightE_97" depart="57.00" departLane="edgeE_O_2" departPos="5.22" departSpeed="0.00" departDelay="0.00" arrival="108.00" arrivalLane="edgeN_I_1" arrivalPos="379.30" arrivalSpeed="19.37" duration="51.00" routeLength="863.54" waitingTime="0.00" waitingCount="0" stopTime="0.00" timeLoss="9.87" rerouteNo="0" devices="tripinfo_rightE_97" vType="vehicleE_97" speedFactor="0.95" vaporized=""/>
    <tripinfo id="straightE_82" depart="50.00" departLane="edgeE_O_4" departPos="4.70" departSpeed="0.00" departDelay="0.00" arrival="109.00" arrivalLane="edgeW_I_2" arrivalPos="579.30" arrivalSpeed="19.49" duration="59.00" routeLength="1095.30" waitingTime="0.00" waitingCount="0" stopTime="0.00" timeLoss="7.87" rerouteNo="0" devices="tripinfo_straightE_82" vType="vehicleE_82" speedFactor="0.97" vaporized=""/>
    <tripinfo id="rightE_113" depart="65.00" departLane="edgeE_O_1" departPos="5.44" departSpeed="0.00" departDelay="0.00" arrival="112.00" arrivalLane="edgeN_I_1" arrivalPos="379.30" arrivalSpeed="21.24" duration="47.00" routeLength="863.32" waitingTime="0.00" waitingCount="0" stopTime="0.00" timeLoss="8.70" rerouteNo="0" devices="tripinfo_rightE_113" vType="vehicleE_113" speedFactor="1.00" vaporized=""/>
    <tripinfo id="straightE_86" depart="53.00" departLane="edgeE_O_2" departPos="4.52" departSpeed="0.00" departDelay="1.00" arrival="113.00" arrivalLane="edgeW_I_3" arrivalPos="579.30" arrivalSpeed="19.25" duration="60.00" routeLength="1095.48" waitingTime="0.00" waitingCount="0" stopTime="0.00" timeLoss="7.43" rerouteNo="0" devices="tripinfo_straightE_86" vType="vehicleE_86" speedFactor="0.95" vaporized=""/>
    <tripinfo id="straightE_101" depart="59.00" departLane="edgeE_O_4" departPos="4.57" departSpeed="0.00" departDelay="0.00" arrival="115.00" arrivalLane="edgeW_I_2" arrivalPos="579.30" arrivalSpeed="19.17" duration="56.00" routeLength="1095.42" waitingTime="0.00" waitingCount="0" stopTime="0.00" timeLoss="5.84" rerouteNo="0" devices="tripinfo_straightE_101" vType="vehicleE_101" speedFactor="0.99" vaporized=""/>
    <tripinfo id="rightW_96" depart="57.00" departLane="edgeW_O_2" departPos="5.04" departSpeed="0.00" departDelay="0.00" arrival="117.00" arrivalLane="edgeS_I_1" arrivalPos="479.30" arrivalSpeed="19.31" duration="60.00" routeLength="1063.72" waitingTime="0.00" waitingCount="0" stopTime="0.00" timeLoss="10.07" rerouteNo="0" devices="tripinfo_rightW_96" vType="vehicleW_96" speedFactor="0.95" vaporized=""/>
    <tripinfo id="rightW_106" depart="61.00" departLane="edgeW_O_1" departPos="5.40" departSpeed="0.00" departDelay="0.00" arrival="118.00" arrivalLane="edgeS_I_2" arrivalPos="479.30" arrivalSpeed="21.41" duration="57.00" routeLength="1063.36" waitingTime="0.00" waitingCount="0" stopTime="0.00" timeLoss="11.53" rerouteNo="0" devices="tripinfo_rightW_106" vType="vehicleW_106" speedFactor="1.03" vaporized=""/>
    <tripinfo id="rightE_110" depart="63.00" departLane="edgeE_O_2" departPos="4.46" departSpeed="0.00" departDelay="0.00" arrival="118.00" arrivalLane="edgeN_I_1" arrivalPos="379.30" arrivalSpeed="18.74" duration="55.00" routeLength="864.30" waitingTime="0.00" waitingCount="0" stopTime="0.00" timeLoss="12.20" rerouteNo="0" devices="tripinfo_rightE_110" vType="vehicleE_110" speedFactor="0.90" vaporized=""/>
    <tripinfo id="rightE_117" depart="67.00" departLane="edgeE_O_1" departPos="5.33" departSpeed="0.00" departDelay="0.00" arrival="124.00" arrivalLane="edgeN_I_1" arrivalPos="379.30" arrivalSpeed="16.92" duration="57.00" routeLength="863.43" waitingTime="0.00" waitingCount="0" stopTime="0.00" timeLoss="11.81" rerouteNo="0" devices="tripinfo_rightE_117" vType="vehicleE_117" speedFactor="0.85" vaporized=""/>
    <tripinfo id="rightW_109" depart="63.00" departLane="edgeW_O_2" departPos="5.30" departSpeed="0.00" departDelay="0.00" arrival="127.00" arrivalLane="edgeS_I_1" arrivalPos="479.30" arrivalSpeed="19.36" duration="64.00" routeLength="1063.46" waitingTime="0.00" waitingCount="0" stopTime="0.00" timeLoss="12.64" rerouteNo="0" devices="tripinfo_rightW_109" vType="vehicleW_109" speedFactor="0.92" vaporized=""/>
    <tripinfo id="straightE_119" depart="68.00" departLane="edgeE_O_2" departPos="4.51" departSpeed="0.00" departDelay="0.00" arrival="127.00" arrivalLane="edgeW_I_1" arrivalPos="579.30" arrivalSpeed="19.74" duration="59.00" routeLength="1095.49" waitingTime="0.00" waitingCount="0" stopTime="0.00" timeLoss="9.11" rerouteNo="0" devices="tripinfo_straightE_119" vType="vehicleE_119" speedFactor="0.99" vaporized=""/>
    <tripinfo id="rightW_116" depart="66.00" departLane="edgeW_O_1" departPos="4.46" departSpeed="0.00" departDelay="0.00" arrival="128.00" arrivalLane="edgeS_I_2" arrivalPos="479.30" arrivalSpeed="19.26" duration="62.00" routeLength="1064.31" waitingTime="0.00" waitingCount="0" stopTime="0.00" timeLoss="12.39" rerouteNo="0" devices="tripinfo_rightW_116" vType="vehicleW_116" speedFactor="0.94" vaporized=""/>
    <tripinfo id="rightW_122" depart="69.00" departLane="edgeW_O_2" departPos="4.80" departSpeed="0.00" departDelay="0.00" arrival="129.00" arrivalLane="edgeS_I_3" arrivalPos="479.30" arrivalSpeed="21.51" duration="60.00" routeLength="1063.96" waitingTime="0.00" waitingCount="0" stopTime="0.00" timeLoss="13.87" rerouteNo="0" devices="tripinfo_rightW_122" vType="vehicleW_122" speedFactor="1.04" vaporized=""/>
    <tripinfo id="rightE_131" depart="76.00" departLane="edgeE_O_2" departPos="4.01" departSpeed="0.00" departDelay="0.00" arrival="129.00" arrivalLane="edgeN_I_1" arrivalPos="379.30" arrivalSpeed="18.37" duration="53.00" routeLength="864.75" waitingTime="0.00" waitingCount="0" stopTime="0.00" timeLoss="8.30" rerouteNo="0" devices="tripinfo_rightE_131" vType="vehicleE_131" speedFactor="0.87" vaporized=""/>
    <tripinfo id="rightW_127" depart="72.00" departLane="edgeW_O_1" departPos="4.37" departSpeed="0.00" departDelay="0.00" arrival="130.00" arrivalLane="edgeS_I_4" arrivalPos="479.30" arrivalSpeed="23.73" duration="58.00" routeLength="1064.39" waitingTime="0.00" waitingCount="0" stopTime="0.00" timeLoss="16.01" rerouteNo="0" devices="tripinfo_rightW_127" vType="vehicleW_127" speedFactor="1.14" vaporized=""/>
    <tripinfo id="straightW_128" depart="74.00" departLane="edgeW_O_4" departPos="5.31" departSpeed="0.00" departDelay="0.00" arrival="130.00" arrivalLane="edgeE_I_4" arrivalPos="479.30" arrivalSpeed="20.13" duration="56.00" routeLength="1094.69" waitingTime="0.00" waitingCount="0" stopTime="0.00" timeLoss="7.58" rerouteNo="0" devices="tripinfo_straightW_128" vType="vehicleW_128" speedFactor="1.00" vaporized=""/>
    <tripinfo id="rightE_135" depart="81.00" departLane="edgeE_O_2" departPos="4.37" departSpeed="0.00" departDelay="0.00" arrival="132.00" arrivalLane="edgeN_I_1" arrivalPos="379.30" arrivalSpeed="19.20" duration="51.00" routeLength="864.39" waitingTime="0.00" waitingCount="0" stopTime="0.00" timeLoss="10.54" rerouteNo="0" devices="tripinfo_rightE_135" vType="vehicleE_135" speedFactor="0.97" vaporized=""/>
    <tripinfo id="rightW_129" depart="75.00" departLane="edgeW_O_2" departPos="4.84" departSpeed="0.00" departDelay="0.00" arrival="133.00" arrivalLane="edgeS_I_1" arrivalPos="479.30" arrivalSpeed="22.29" duration="58.00" routeLength="1063.92" waitingTime="0.00" waitingCount="0" stopTime="0.00" timeLoss="13.43" rerouteNo="0" devices="tripinfo_rightW_129" vType="vehicleW_129" speedFactor="1.06" vaporized=""/>
    <tripinfo id="straightW_126" depart="71.00" departLane="edgeW_O_5" departPos="5.20" departSpeed="0.00" departDelay="0.00" arrival="135.00" arrivalLane="edgeE_I_1" arrivalPos="479.30" arrivalSpeed="15.81" duration="64.00" routeLength="1094.80" waitingTime="0.00" waitingCount="0" stopTime="0.00" timeLoss="6.18" rerouteNo="0" devices="tripinfo_straightW_126" vType="vehicleW_126" speedFactor="0.84" vaporized=""/>
    <tripinfo id="straightE_132" depart="77.00" departLane="edgeE_O_3" departPos="4.03" departSpeed="0.00" departDelay="0.00" arrival="135.00" arrivalLane="edgeW_I_1" arrivalPos="579.30" arrivalSpeed="18.27" duration="58.00" routeLength="1095.97" waitingTime="0.00" waitingCount="0" stopTime="0.00" timeLoss="5.99" rerouteNo="0" devices="tripinfo_straightE_132" vType="vehicleE_132" speedFactor="0.96" vaporized=""/>
    <tripinfo id="straightE_134" depart="79.00" departLane="edgeE_O_5" departPos="5.17" departSpeed="0.00" departDelay="0.00" arrival="135.00" arrivalLane="edgeW_I_3" arrivalPos="579.30" arrivalSpeed="19.07" duration="56.00" routeLength="1094.83" waitingTime="0.00" waitingCount="0" stopTime="0.00" timeLoss="6.40" rerouteNo="0" devices="tripinfo_straightE_134" vType="vehicleE_134" speedFactor="1.01" vaporized=""/>
    <tripinfo id="rightE_156" depart="95.00" departLane="edgeE_O_1" departPos="5.03" departSpeed="0.00" departDelay="0.00" arrival="141.00" arrivalLane="edgeN_I_1" arrivalPos="379.30" arrivalSpeed="22.30" duration="46.00" routeLength="863.73" waitingTime="0.00" waitingCount="0" stopTime="0.00" timeLoss="11.45" rerouteNo="0" devices="tripinfo_rightE_156" vType="vehicleE_156" speedFactor="1.11" vaporized=""/>
    <tripinfo id="straightE_147" depart="88.00" departLane="edgeE_O_2" departPos="5.67" departSpeed="0.00" departDelay="0.00" arrival="145.00" arrivalLane="edgeW_I_1" arrivalPos="579.30" arrivalSpeed="18.93" duration="57.00" routeLength="1094.33" waitingTime="0.00" waitingCount="0" stopTime="0.00" timeLoss="6.20" rerouteNo="0" devices="tripinfo_straightE_147" vType="vehicleE_147" speedFactor="0.97" vaporized=""/>
    <tripinfo id="straightW_141" depart="85.00" departLane="edgeW_O_2" departPos="4.21" departSpeed="0.00" departDelay="0.00" arrival="147.00" arrivalLane="edgeE_I_1" arrivalPos="479.30" arrivalSpeed="17.29" duration="62.00" routeLength="1095.79" waitingTime="0.00" waitingCount="0" stopTime="0.00" timeLoss="6.13" rerouteNo="0" devices="tripinfo_straightW_141" vType="vehicleW_141" speedFactor="0.88" vaporized=""/>
    <tripinfo id="straightW_150" depart="91.00" departLane="edgeW_O_3" departPos="5.48" departSpeed="0.00" departDelay="0.00" arrival="147.00" arrivalLane="edgeE_I_2" arrivalPos="479.30" arrivalSpeed="18.76" duration="56.00" routeLength="1094.52" waitingTime="0.00" waitingCount="0" stopTime="0.00" timeLoss="6.88" rerouteNo="0" devices="tripinfo_straightW_150" vType="vehicleW_150" speedFactor="0.99" vaporized=""/>
    <tripinfo id="rightE_162" depart="99.00" departLane="edgeE_O_1" departPos="4.12" departSpeed="0.00" departDelay="0.00" arrival="147.00" arrivalLane="edgeN_I_1" arrivalPos="379.30" arrivalSpeed="20.79" duration="48.00" routeLength="864.64" waitingTime="0.00" waitingCount="0" stopTime="0.00" timeLoss="9.77" rerouteNo="0" devices="tripinfo_rightE_162" vType="vehicleE_162" speedFactor="1.01" vaporized=""/>
    <tripinfo id="straightE_152" depart="93.00" departLane="edgeE_O_2" departPos="4.24" departSpeed="0.00" departDelay="0.00" arrival="148.00" arrivalLane="edgeW_I_2" arrivalPos="579.30" arrivalSpeed="20.04" duration="55.00" routeLength="1095.76" waitingTime="0.00" waitingCount="0" stopTime="0.00" timeLoss="6.61" rerouteNo="0" devices="tripinfo_straightE_152" vType="vehicleE_152" speedFactor="1.02" vaporized=""/>
    <tripinfo id="straightW_164" depart="100.00" departLane="edgeW_O_5" departPos="4.26" departSpeed="0.00" departDelay="0.00" arrival="150.00" arrivalLane="edgeE_I_4" arrivalPos="479.30" arrivalSpeed="21.86" duration="50.00" routeLength="1095.74" waitingTime="0.00" waitingCount="0" stopTime="0.00" timeLoss="5.91" rerouteNo="0" devices="tripinfo_straightW_164" vType="vehicleW_164" speedFactor="1.11" vaporized=""/>
    <tripinfo id="straightW_158" depart="96.00" departLane="edgeW_O_3" departPos="4.86" departSpeed="0.00" departDelay="0.00" arrival="151.00" arrivalLane="edgeE_I_3" arrivalPos="479.30" arrivalSpeed="19.63" duration="55.00" routeLength="1095.13" waitingTime="0.00" waitingCount="0" stopTime="0.00" timeLoss="6.71" rerouteNo="0" devices="tripinfo_straightW_158" vType="vehicleW_158" speedFactor="1.02" vaporized=""/>
    <tripinfo id="straightE_171" depart="105.00" departLane="edgeE_O_4" departPos="4.58" departSpeed="0.00" departDelay="0.00" arrival="153.00" arrivalLane="edgeW_I_3" arrivalPos="579.30" arrivalSpeed="24.16" duration="48.00" routeLength="1095.42" waitingTime="0.00" waitingCount="0" stopTime="0.00" timeLoss="7.95" rerouteNo="0" devices="tripinfo_straightE_171" vType="vehicleE_171" speedFactor="1.26" vaporized=""/>
    <tripinfo id="straightE_160" depart="98.00" departLane="edgeE_O_4" departPos="4.56" departSpeed="0.00" departDelay="0.00" arrival="155.00" arrivalLane="edgeW_I_2" arrivalPos="579.30" arrivalSpeed="19.00" duration="57.00" routeLength="1095.44" waitingTime="0.00" waitingCount="0" stopTime="0.00" timeLoss="5.86" rerouteNo="0" devices="tripinfo_straightE_160" vType="vehicleE_160" speedFactor="0.98" vaporized=""/>
    <tripinfo id="rightW_159" depart="97.00" departLane="edgeW_O_2" departPos="4.06" departSpeed="0.00" departDelay="0.00" arrival="157.00" arrivalLane="edgeS_I_1" arrivalPos="479.30" arrivalSpeed="20.51" duration="60.00" routeLength="1064.70" waitingTime="0.00" waitingCount="0" stopTime="0.00" timeLoss="13.70" rerouteNo="0" devices="tripinfo_rightW_159" vType="vehicleW_159" speedFactor="1.01" vaporized=""/>
    <tripinfo id="rightE_184" depart="113.00" departLane="edgeE_O_2" departPos="5.43" departSpeed="0.00" departDelay="1.00" arrival="160.00" arrivalLane="edgeN_I_1" arrivalPos="379.30" arrivalSpeed="20.98" duration="47.00" routeLength="863.33" waitingTime="0.00" waitingCount="0" stopTime="0.00" timeLoss="10.45" rerouteNo="0" devices="tripinfo_rightE_184" vType="vehicleE_184" speedFactor="1.05" vaporized=""/>