<?xml version="1.0" encoding="UTF-8"?>

<!-- generated on 2021-10-23 05:39:17 by Eclipse SUMO sumo Version 1.10.0
<configuration xmlns:xsi="http://www.w3.org/2001/XMLSchema-instance" xsi:noNamespaceSchemaLocation="http://sumo.dlr.de/xsd/sumoConfiguration.xsd">

    <input>
        <net-file value="data11/cross.net.xml"/>
        <route-files value="data11/cross.rou.xml"/>
        <additional-files value="data11/cross.tls.xml"/>
    </input>

    <output>
        <tripinfo-output value="data11/tripinfo.xml"/>
        <tripinfo-output.write-unfinished value="true"/>
    </output>

    <time>
        <begin value="0"/>
        <step-length value="1"/>
    </time>

    <processing>
        <threads value="5"/>
        <time-to-teleport value="-1"/>
    </processing>

    <report>
        <verbose value="true"/>
        <no-warnings value="true"/>
        <no-step-log value="true"/>
    </report>

    <traci_server>
        <remote-port value="49256"/>
    </traci_server>

    <gui_only>
        <gui-settings-file value="data11/viewsettings.xml"/>
        <tracker-interval value="1"/>
    </gui_only>

</configuration>
-->

<tripinfos xmlns:xsi="http://www.w3.org/2001/XMLSchema-instance" xsi:noNamespaceSchemaLocation="http://sumo.dlr.de/xsd/tripinfo_file.xsd">
    <tripinfo id="straightS_0" depart="0.00" departLane="edgeS_O_1" departPos="4.36" departSpeed="0.00" departDelay="0.00" arrival="81.00" arrivalLane="edgeN_I_1" arrivalPos="582.50" arrivalSpeed="20.40" duration="81.00" routeLength="1495.64" waitingTime="0.00" waitingCount="0" stopTime="0.00" timeLoss="6.63" rerouteNo="0" devices="tripinfo_straightS_0" vType="vehicleS_0" speedFactor="1.09" vaporized=""/>
    <tripinfo id="straightN_3" depart="2.00" departLane="edgeN_O_1" departPos="4.61" departSpeed="0.00" departDelay="0.00" arrival="83.00" arrivalLane="edgeS_I_1" arrivalPos="882.50" arrivalSpeed="21.14" duration="81.00" routeLength="1495.39" waitingTime="0.00" waitingCount="0" stopTime="0.00" timeLoss="6.69" rerouteNo="0" devices="tripinfo_straightN_3" vType="vehicleN_3" speedFactor="1.07" vaporized=""/>
    <tripinfo id="leftS_7" depart="7.00" departLane="edgeS_O_5" departPos="4.53" departSpeed="0.00" departDelay="0.00" arrival="83.00" arrivalLane="edgeW_I_3" arrivalPos="279.30" arrivalSpeed="22.08" duration="76.00" routeLength="1193.24" waitingTime="0.00" waitingCount="0" stopTime="0.00" timeLoss="10.54" rerouteNo="0" devices="tripinfo_leftS_7" vType="vehicleS_7" speedFactor="1.00" vaporized=""/>
    <tripinfo id="straightS_11" depart="10.00" departLane="edgeS_O_3" departPos="5.68" departSpeed="0.00" departDelay="0.00" arrival="89.00" arrivalLane="edgeN_I_1" arrivalPos="582.50" arrivalSpeed="20.35" duration="79.00" routeLength="1494.32" waitingTime="0.00" waitingCount="0" stopTime="0.00" timeLoss="6.27" rerouteNo="0" devices="tripinfo_straightS_11" vType="vehicleS_11" speedFactor="1.11" vaporized=""/>
    <tripinfo id="straightN_13" depart="13.00" departLane="edgeN_O_1" departPos="4.94" departSpeed="0.00" departDelay="0.00" arrival="93.00" arrivalLane="edgeS_I_1" arrivalPos="882.50" arrivalSpeed="21.48" duration="80.00" routeLength="1495.06" waitingTime="0.00" waitingCount="0" stopTime="0.00" timeLoss="6.76" rerouteNo="0" devices="tripinfo_straightN_13" vType="vehicleN_13" speedFactor="1.08" vaporized=""/>
    <tripinfo id="leftS_17" depart="17.00" departLane="edgeS_O_5" departPos="4.97" departSpeed="0.00" departDelay="0.00" arrival="93.00" arrivalLane="edgeW_I_3" arrivalPos="279.30" arrivalSpeed="22.05" duration="76.00" routeLength="1192.80" waitingTime="0.00" waitingCount="0" stopTime="0.00" timeLoss="10.82" rerouteNo="0" devices="tripinfo_leftS_17" vType="vehicleS_17" speedFactor="0.99" vaporized=""/>
    <tripinfo id="straightS_6" depart="6.00" departLane="edgeS_O_2" departPos="4.25" departSpeed="0.00" departDelay="0.00" arrival="95.00" arrivalLane="edgeN_I_1" arrivalPos="582.50" arrivalSpeed="19.08" duration="89.00" routeLength="1495.75" waitingTime="0.00" waitingCount="0" stopTime="0.00" timeLoss="6.46" rerouteNo="0" devices="tripinfo_straightS_6" vType="vehicleS_6" speedFactor="0.98" vaporized=""/>
    <tripinfo id="straightS_16" depart="15.00" departLane="edgeS_O_2" departPos="5.06" departSpeed="0.00" departDelay="0.00" arrival="96.00" arrivalLane="edgeN_I_2" arrivalPos="582.50" arrivalSpeed="20.06" duration="81.00" routeLength="1494.93" waitingTime="0.00" waitingCount="0" stopTime="0.00" timeLoss="7.19" rerouteNo="0" devices="tripinfo_straightS_16" vType="vehicleS_16" speedFactor="1.09" vaporized=""/>
    <tripinfo id="straightS_26" depart="23.00" departLane="edgeS_O_1" departPos="5.64" departSpeed="0.00" departDelay="0.00" arrival="101.00" arrivalLane="edgeN_I_3" arrivalPos="582.50" arrivalSpeed="23.10" duration="78.00" routeLength="1494.36" waitingTime="0.00" waitingCount="0" stopTime="0.00" timeLoss="8.40" rerouteNo="0" devices="tripinfo_straightS_26" vType="vehicleS_26" speedFactor="1.16" vaporized=""/>
    <tripinfo id="straightS_19" depart="19.00" departLane="edgeS_O_1" departPos="4.60" departSpeed="0.00" departDelay="0.00" arrival="103.00" arrivalLane="edgeN_I_1" arrivalPos="582.50" arrivalSpeed="19.35" duration="84.00" routeLength="1495.40" waitingTime="0.00" waitingCount="0" stopTime="0.00" timeLoss="6.40" rerouteNo="0" devices="tripinfo_straightS_19" vType="vehicleS_19" speedFactor="1.03" vaporized=""/>
    <tripinfo id="straightS_18" depart="18.00" departLane="edgeS_O_4" departPos="5.18" departSpeed="0.00" departDelay="0.00" arrival="105.00" arrivalLane="edgeN_I_2" arrivalPos="582.50" arrivalSpeed="19.52" duration="87.00" routeLength="1494.82" waitingTime="0.00" waitingCount="0" stopTime="0.00" timeLoss="8.60" rerouteNo="0" devices="tripinfo_straightS_18" vType="vehicleS_18" speedFactor="1.03" vaporized=""/>
    <tripinfo id="straightS_23" depart="21.00" departLane="edgeS_O_4" departPos="4.34" departSpeed="0.00" departDelay="0.00" arrival="108.00" arrivalLane="edgeN_I_1" arrivalPos="582.50" arrivalSpeed="19.59" duration="87.00" routeLength="1495.66" waitingTime="0.00" waitingCount="0" stopTime="0.00" timeLoss="6.64" rerouteNo="0" devices="tripinfo_straightS_23" vType="vehicleS_23" speedFactor="1.00" vaporized=""/>
    <tripinfo id="straightN_32" depart="28.00" departLane="edgeN_O_2" departPos="4.44" departSpeed="0.00" departDelay="0.00" arrival="111.00" arrivalLane="edgeS_I_1" arrivalPos="882.50" arrivalSpeed="19.09" duration="83.00" routeLength="1495.56" waitingTime="0.00" waitingCount="0" stopTime="0.00" timeLoss="6.31" rerouteNo="0" devices="tripinfo_straightN_32" vType="vehicleN_32" speedFactor="1.04" vaporized=""/>
    <tripinfo id="uturnW_35" depart="30.00" departLane="edgeW_O_4" departPos="5.22" departSpeed="0.00" departDelay="0.00" arrival="111.00" arrivalLane="edgeW_I_4" arrivalPos="279.30" arrivalSpeed="25.28" duration="81.00" routeLength="558.06" waitingTime="36.00" waitingCount="1" stopTime="0.00" timeLoss="54.05" rerouteNo="0" devices="tripinfo_uturnW_35" vType="vehicleW_35" speedFactor="1.12" vaporized=""/>
    <tripinfo id="uturnN_43" depart="35.00" departLane="edgeN_O_5" departPos="4.28" departSpeed="0.00" departDelay="0.00" arrival="112.00" arrivalLane="edgeN_I_4" arrivalPos="582.50" arrivalSpeed="17.47" duration="77.00" routeLength="1165.40" waitingTime="0.00" waitingCount="0" stopTime="0.00" timeLoss="10.02" rerouteNo="0" devices="tripinfo_uturnN_43" vType="vehicleN_43" speedFactor="0.95" vaporized=""/>
    <tripinfo id="uturnW_45" depart="36.00" departLane="edgeW_O_4" departPos="4.94" departSpeed="0.00" departDelay="0.00" arrival="112.00" arrivalLane="edgeW_I_4" arrivalPos="279.30" arrivalSpeed="24.34" duration="76.00" routeLength="558.34" waitingTime="34.00" waitingCount="1" stopTime="0.00" timeLoss="50.08" rerouteNo="0" devices="tripinfo_uturnW_45" vType="vehicleW_45" speedFactor="1.15" vaporized=""/>
    <tripinfo id="straightN_20" depart="20.00" departLane="edgeN_O_2" departPos="4.57" departSpeed="0.00" departDelay="0.00" arrival="116.00" arrivalLane="edgeS_I_1" arrivalPos="882.50" arrivalSpeed="16.59" duration="96.00" routeLength="1495.43" waitingTime="0.00" waitingCount="0" stopTime="0.00" timeLoss="7.85" rerouteNo="0" devices="tripinfo_straightN_20" vType="vehicleN_20" speedFactor="0.90" vaporized=""/>
    <tripinfo id="leftW_21" depart="20.00" departLane="edgeW_O_3" departPos="4.80" departSpeed="0.00" departDelay="0.00" arrival="125.00" arrivalLane="edgeN_I_4" arrivalPos="582.50" arrivalSpeed="19.53" duration="105.00" routeLength="890.42" waitingTime="46.00" waitingCount="1" stopTime="0.00" timeLoss="57.81" rerouteNo="0" devices="tripinfo_leftW_21" vType="vehicleW_21" speedFactor="1.02" vaporized=""/>
    <tripinfo id="straightN_33" depart="29.00" departLane="edgeN_O_1" departPos="4.44" departSpeed="0.00" departDelay="0.00" arrival="131.00" arrivalLane="edgeS_I_1" arrivalPos="882.50" arrivalSpeed="15.74" duration="102.00" routeLength="1495.56" waitingTime="0.00" waitingCount="0" stopTime="0.00" timeLoss="7.05" rerouteNo="0" devices="tripinfo_straightN_33" vType="vehicleN_33" speedFactor="0.83" vaporized=""/>
    <tripinfo id="uturnW_94" depart="94.00" departLane="edgeW_O_4" departPos="3.98" departSpeed="0.00" departDelay="0.00" arrival="132.00" arrivalLane="edgeW_I_4" arrivalPos="279.30" arrivalSpeed="26.64" duration="38.00" routeLength="559.30" waitingTime="0.00" waitingCount="0" stopTime="0.00" timeLoss="12.57" rerouteNo="0" devices="tripinfo_uturnW_94" vType="vehicleW_94" speedFactor="1.20" vaporized=""/>
    <tripinfo id="leftW_50" depart="42.00" departLane="edgeW_O_4" departPos="5.76" departSpeed="0.00" departDelay="0.00" arrival="136.00" arrivalLane="edgeN_I_5" arrivalPos="582.50" arrivalSpeed="20.49" duration="94.00" routeLength="889.46" waitingTime="32.00" waitingCount="2" stopTime="0.00" timeLoss="49.37" rerouteNo="0" devices="tripinfo_leftW_50" vType="vehicleW_50" speedFactor="1.08" vaporized=""/>
    <tripinfo id="uturnE_22" depart="20.00" departLane="edgeE_O_4" departPos="5.49" departSpeed="0.00" departDelay="0.00" arrival="137.00" arrivalLane="edgeE_I_3" arrivalPos="979.30" arrivalSpeed="25.88" duration="117.00" routeLength="1957.79" waitingTime="13.00" waitingCount="1" stopTime="0.00" timeLoss="29.25" rerouteNo="0" devices="tripinfo_uturnE_22" vType="vehicleE_22" speedFactor="1.16" vaporized=""/>
    <tripinfo id="uturnS_9" depart="10.00" departLane="edgeS_O_5" departPos="4.89" departSpeed="0.00" departDelay="1.00" arrival="138.00" arrivalLane="edgeS_I_1" arrivalPos="882.50" arrivalSpeed="16.06" duration="128.00" routeLength="1764.79" waitingTime="0.00" waitingCount="0" stopTime="0.00" timeLoss="13.32" rerouteNo="0" devices="tripinfo_uturnS_9" vType="vehicleS_9" speedFactor="0.83" vaporized=""/>
    <tripinfo id="leftW_66" depart="62.00" departLane="edgeW_O_4" departPos="4.91" departSpeed="0.00" departDelay="0.00" arrival="139.00" arrivalLane="edgeN_I_3" arrivalPos="582.50" arrivalSpeed="17.15" duration="77.00" routeLength="890.31" waitingTime="7.00" waitingCount="1" stopTime="0.00" timeLoss="21.84" rerouteNo="0" devices="tripinfo_leftW_66" vType="vehicleW_66" speedFactor="0.88" vaporized=""/>
    <tripinfo id="leftW_89" depart="89.00" departLane="edgeW_O_3" departPos="5.05" departSpeed="0.00" departDelay="0.00" arrival="143.00" arrivalLane="edgeN_I_5" arrivalPos="582.50" arrivalSpeed="18.75" duration="54.00" routeLength="890.17" waitingTime="0.00" waitingCount="0" stopTime="0.00" timeLoss="6.47" rerouteNo="0" devices="tripinfo_leftW_89" vType="vehicleW_89" speedFactor="1.02" vaporized=""/>
    <tripinfo id="leftE_27" depart="24.00" departLane="edgeE_O_3" departPos="5.53" departSpeed="0.00" departDelay="1.00" arrival="145.00" arrivalLane="edgeS_I_4" arrivalPos="882.50" arrivalSpeed="20.58" duration="121.00" routeLength="1889.68" waitingTime="5.00" waitingCount="1" stopTime="0.00" timeLoss="21.83" rerouteNo="0" devices="tripinfo_leftE_27" vType="vehicleE_27" speedFactor="1.05" vaporized=""/>
    <tripinfo id="straightE_5" depart="5.00" departLane="edgeE_O_1" departPos="5.18" departSpeed="0.00" departDelay="0.00" arrival="146.00" arrivalLane="edgeW_I_2" arrivalPos="279.30" arrivalSpeed="20.73" duration="141.00" routeLength="1294.82" waitingTime="55.00" waitingCount="1" stopTime="0.00" timeLoss="68.65" rerouteNo="0" devices="tripinfo_straightE_5" vType="vehicleE_5" speedFactor="0.99" vaporized=""/>
    <tripinfo id="straightE_25" depart="22.00" departLane="edgeE_O_3" departPos="5.73" departSpeed="0.00" departDelay="0.00" arrival="146.00" arrivalLane="edgeW_I_3" arrivalPos="279.30" arrivalSpeed="24.45" duration="124.00" routeLength="1294.27" waitingTime="44.00" waitingCount="1" stopTime="0.00" timeLoss="59.55" rerouteNo="0" devices="tripinfo_straightE_25" vType="vehicleE_25" speedFactor="1.10" vaporized=""/>
    <tripinfo id="straightE_2" depart="1.00" departLane="edgeE_O_2" departPos="5.23" departSpeed="0.00" departDelay="0.00" arrival="147.00" arrivalLane="edgeW_I_1" arrivalPos="279.30" arrivalSpeed="24.83" duration="146.00" routeLength="1294.77" waitingTime="65.00" waitingCount="1" stopTime="0.00" timeLoss="81.88" rerouteNo="0" devices="tripinfo_straightE_2" vType="vehicleE_2" speedFactor="1.12" vaporized=""/>
    <tripinfo id="leftE_1" depart="0.00" departLane="edgeE_O_4" departPos="4.38" departSpeed="0.00" departDelay="0.00" arrival="148.00" arrivalLane="edgeS_I_1" arrivalPos="882.50" arrivalSpeed="16.95" duration="148.00" routeLength="1890.84" waitingTime="16.00" waitingCount="1" stopTime="0.00" timeLoss="30.34" rerouteNo="0" devices="tripinfo_leftE_1" vType="vehicleE_1" speedFactor="0.89" vaporized=""/>
    <tripinfo id="straightE_14" depart="13.00" departLane="edgeE_O_1" departPos="5.76" departSpeed="0.00" departDelay="0.00" arrival="150.00" arrivalLane="edgeW_I_2" arrivalPos="279.30" arrivalSpeed="17.83" duration="137.00" routeLength="1294.24" waitingTime="37.00" waitingCount="1" stopTime="0.00" timeLoss="52.19" rerouteNo="0" devices="tripinfo_straightE_14" vType="vehicleE_14" speedFactor="0.85" vaporized=""/>
    <tripinfo id="straightE_29" depart="28.00" departLane="edgeE_O_3" departPos="5.33" departSpeed="0.00" departDelay="3.00" arrival="150.00" arrivalLane="edgeW_I_3" arrivalPos="279.30" arrivalSpeed="23.02" duration="122.00" routeLength="1294.67" waitingTime="39.00" waitingCount="1" stopTime="0.00" timeLoss="54.76" rerouteNo="0" devices="tripinfo_straightE_29" vType="vehicleE_29" speedFactor="1.06" vaporized=""/>
    <tripinfo id="straightE_12" depart="10.00" departLane="edgeE_O_3" departPos="4.24" departSpeed="0.00" departDelay="0.00" arrival="151.00" arrivalLane="edgeW_I_1" arrivalPos="279.30" arrivalSpeed="20.58" duration="141.00" routeLength="1295.76" waitingTime="48.00" waitingCount="1" stopTime="0.00" timeLoss="65.43" rerouteNo="0" devices="tripinfo_straightE_12" vType="vehicleE_12" speedFactor="0.95" vaporized=""/>
    <tripinfo id="straightE_47" depart="38.00" departLane="edgeE_O_3" departPos="4.65" departSpeed="0.00" departDelay="0.00" arrival="151.00" arrivalLane="edgeW_I_2" arrivalPos="279.30" arrivalSpeed="20.20" duration="113.00" routeLength="1295.35" waitingTime="25.00" waitingCount="1" stopTime="0.00" timeLoss="48.45" rerouteNo="0" devices="tripinfo_straightE_47" vType="vehicleE_47" speedFactor="1.10" vaporized=""/>
    <tripinfo id="straightE_31" depart="31.00" departLane="edgeE_O_3" departPos="5.24" departSpeed="0.00" departDelay="5.00" arrival="152.00" arrivalLane="edgeW_I_1" arrivalPos="279.30" arrivalSpeed="20.77" duration="121.00" routeLength="1294.76" waitingTime="28.00" waitingCount="1" stopTime="0.00" timeLoss="45.12" rerouteNo="0" devices="tripinfo_straightE_31" vType="vehicleE_31" speedFactor="0.94" vaporized=""/>
    <tripinfo id="uturnE_39" depart="32.00" departLane="edgeE_O_4" departPos="5.42" departSpeed="0.00" departDelay="0.00" arrival="152.00" arrivalLane="edgeE_I_1" arrivalPos="979.30" arrivalSpeed="20.69" duration="120.00" routeLength="1957.86" waitingTime="0.00" waitingCount="0" stopTime="0.00" timeLoss="12.86" rerouteNo="0" devices="tripinfo_uturnE_39" vType="vehicleE_39" speedFactor="0.95" vaporized=""/>
    <tripinfo id="straightE_58" depart="56.00" departLane="edgeE_O_2" departPos="5.35" departSpeed="0.00" departDelay="0.00" arrival="152.00" arrivalLane="edgeW_I_3" arrivalPos="279.30" arrivalSpeed="25.33" duration="96.00" routeLength="1294.65" waitingTime="18.00" waitingCount="1" stopTime="0.00" timeLoss="34.73" rerouteNo="0" devices="tripinfo_straightE_58" vType="vehicleE_58" speedFactor="1.16" vaporized=""/>
    <tripinfo id="straightE_42" depart="34.00" departLane="edgeE_O_1" departPos="4.68" departSpeed="0.00" departDelay="0.00" arrival="153.00" arrivalLane="edgeW_I_2" arrivalPos="279.30" arrivalSpeed="19.35" duration="119.00" routeLength="1295.32" waitingTime="23.00" waitingCount="1" stopTime="0.00" timeLoss="39.01" rerouteNo="0" devices="tripinfo_straightE_42" vType="vehicleE_42" speedFactor="0.89" vaporized=""/>
    <tripinfo id="straightE_36" depart="30.00" departLane="edgeE_O_1" departPos="4.74" departSpeed="0.00" departDelay="0.00" arrival="154.00" arrivalLane="edgeW_I_1" arrivalPos="279.30" arrivalSpeed="18.59" duration="124.00" routeLength="1295.26" waitingTime="26.00" waitingCount="1" stopTime="0.00" timeLoss="41.35" rerouteNo="0" devices="tripinfo_straightE_36" vType="vehicleE_36" speedFactor="0.86" vaporized=""/>
    <tripinfo id="straightE_41" depart="33.00" departLane="edgeE_O_2" departPos="5.55" departSpeed="0.00" departDelay="0.00" arrival="154.00" arrivalLane="edgeW_I_2" arrivalPos="279.30" arrivalSpeed="21.36" duration="121.00" routeLength="1294.45" waitingTime="30.00" waitingCount="1" stopTime="0.00" timeLoss="49.56" rerouteNo="0" devices="tripinfo_straightE_41" vType="vehicleE_41" speedFactor="1.00" vaporized=""/>
    <tripinfo id="straightE_74" depart="70.00" departLane="edgeE_O_2" departPos="4.85" departSpeed="0.00" departDelay="0.00" arrival="155.00" arrivalLane="edgeW_I_3" arrivalPos="279.30" arrivalSpeed="24.47" duration="85.00" routeLength="1295.15" waitingTime="4.00" waitingCount="1" stopTime="0.00" timeLoss="20.26" rerouteNo="0" devices="tripinfo_straightE_74" vType="vehicleE_74" speedFactor="1.11" vaporized=""/>
    <tripinfo id="straightE_65" depart="61.00" departLane="edgeE_O_3" departPos="5.46" departSpeed="0.00" departDelay="0.00" arrival="156.00" arrivalLane="edgeW_I_2" arrivalPos="279.30" arrivalSpeed="22.42" duration="95.00" routeLength="1294.54" waitingTime="4.00" waitingCount="1" stopTime="0.00" timeLoss="24.81" rerouteNo="0" devices="tripinfo_straightE_65" vType="vehicleE_65" speedFactor="1.02" vaporized=""/>
    <tripinfo id="straightE_68" depart="65.00" departLane="edgeE_O_3" departPos="5.05" departSpeed="0.00" departDelay="0.00" arrival="156.00" arrivalLane="edgeW_I_1" arrivalPos="279.30" arrivalSpeed="22.20" duration="91.00" routeLength="1294.95" waitingTime="3.00" waitingCount="1" stopTime="0.00" timeLoss="19.79" rerouteNo="0" devices="tripinfo_straightE_68" vType="vehicleE_68" speedFactor="1.01" vaporized=""/>
    <tripinfo id="straightE_70" depart="66.00" departLane="edgeE_O_2" departPos="4.69" departSpeed="0.00" departDelay="0.00" arrival="157.00" arrivalLane="edgeW_I_1" arrivalPos="279.30" arrivalSpeed="20.49" duration="91.00" routeLength="1295.31" waitingTime="0.00" waitingCount="0" stopTime="0.00" timeLoss="15.81" rerouteNo="0" devices="tripinfo_straightE_70" vType="vehicleE_70" speedFactor="0.95" vaporized=""/>
    <tripinfo id="straightE_73" depart="69.00" departLane="edgeE_O_1" departPos="4.51" departSpeed="0.00" departDelay="0.00" arrival="157.00" arrivalLane="edgeW_I_3" arrivalPos="279.30" arrivalSpeed="24.19" duration="88.00" routeLength="1295.49" waitingTime="1.00" waitingCount="1" stopTime="0.00" timeLoss="25.20" rerouteNo="0" devices="tripinfo_straightE_73" vType="vehicleE_73" speedFactor="1.14" vaporized=""/>
    <tripinfo id="straightE_75" depart="71.00" departLane="edgeE_O_3" departPos="4.16" departSpeed="0.00" departDelay="0.00" arrival="158.00" arrivalLane="edgeW_I_2" arrivalPos="279.30" arrivalSpeed="20.52" duration="87.00" routeLength="1295.84" waitingTime="0.00" waitingCount="0" stopTime="0.00" timeLoss="11.28" rerouteNo="0" devices="tripinfo_straightE_75" vType="vehicleE_75" speedFactor="0.95" vaporized=""/>
    <tripinfo id="straightE_82" depart="82.00" departLane="edgeE_O_1" departPos="4.81" departSpeed="0.00" departDelay="0.00" arrival="159.00" arrivalLane="edgeW_I_2" arrivalPos="279.30" arrivalSpeed="22.63" duration="77.00" routeLength="1295.18" waitingTime="0.00" waitingCount="0" stopTime="0.00" timeLoss="7.67" rerouteNo="0" devices="tripinfo_straightE_82" vType="vehicleE_82" speedFactor="1.03" vaporized=""/>
    <tripinfo id="straightE_84" depart="85.00" departLane="edgeE_O_1" departPos="5.73" departSpeed="0.00" departDelay="0.00" arrival="161.00" arrivalLane="edgeW_I_1" arrivalPos="279.30" arrivalSpeed="23.33" duration="76.00" routeLength="1294.27" waitingTime="0.00" waitingCount="0" stopTime="0.00" timeLoss="8.10" rerouteNo="0" devices="tripinfo_straightE_84" vType="vehicleE_84" speedFactor="1.05" vaporized=""/>
    <tripinfo id="leftE_60" depart="58.00" departLane="edgeE_O_3" departPos="4.18" departSpeed="0.00" departDelay="0.00" arrival="164.00" arrivalLane="edgeS_I_3" arrivalPos="882.50" arrivalSpeed="20.66" duration="106.00" routeLength="1891.04" waitingTime="0.00" waitingCount="0" stopTime="0.00" timeLoss="8.44" rerouteNo="0" devices="tripinfo_leftE_60" vType="vehicleE_60" speedFactor="1.07" vaporized=""/>
    <tripinfo id="straightE_85" depart="88.00" departLane="edgeE_O_1" departPos="5.34" departSpeed="0.00" departDelay="2.00" arrival="170.00" arrivalLane="edgeW_I_1" arrivalPos="279.30" arrivalSpeed="20.14" duration="82.00" routeLength="1294.66" waitingTime="0.00" waitingCount="0" stopTime="0.00" timeLoss="7.55" rerouteNo="0" devices="tripinfo_straightE_85" vType="vehicleE_85" speedFactor="0.95" vaporized=""/>
    <tripinfo id="straightE_90" depart="91.00" departLane="edgeE_O_1" departPos="4.71" departSpeed="0.00" departDelay="2.00" arrival="170.00" arrivalLane="edgeW_I_2" arrivalPos="279.30" arrivalSpeed="23.90" duration="79.00" routeLength="1295.29" waitingTime="0.00" waitingCount="0" stopTime="0.00" timeLoss="12.39" rerouteNo="0" devices="tripinfo_straightE_90" vType="vehicleE_90" speedFactor="1.07" vaporized=""/>
    <tripinfo id="straightW_15" depart="14.00" departLane="edgeW_O_1" departPos="4.08" departSpeed="0.00" departDelay="0.00" arrival="171.00" arrivalLane="edgeE_I_4" arrivalPos="979.30" arrivalSpeed="25.66" duration="157.00" routeLength="1295.92" waitingTime="92.00" waitingCount="1" stopTime="0.00" timeLoss="104.67" rerouteNo="0" devices="tripinfo_straightW_15" vType="vehicleW_15" speedFactor="1.20" vaporized=""/>
    <tripinfo id="uturnE_67" depart="63.00" departLane="edgeE_O_4" departPos="4.46" departSpeed="0.00" departDelay="0.00" arrival="171.00" arrivalLane="edgeE_I_2" arrivalPos="979.30" arrivalSpeed="23.22" duration="108.00" routeLength="1958.82" waitingTime="0.00" waitingCount="0" stopTime="0.00" timeLoss="12.87" rerouteNo="0" devices="tripinfo_uturnE_67" vType="vehicleE_67" speedFactor="1.07" vaporized=""/>
    <tripinfo id="straightW_24" depart="22.00" departLane="edgeW_O_3" departPos="5.65" departSpeed="0.00" departDelay="1.00" arrival="177.00" arrivalLane="edgeE_I_2" arrivalPos="979.30" arrivalSpeed="22.79" duration="155.00" routeLength="1294.35" waitingTime="82.00" waitingCount="1" stopTime="0.00" timeLoss="96.09" rerouteNo="0" devices="tripinfo_straightW_24" vType="vehicleW_24" speedFactor="1.05" vaporized=""/>
    <tripinfo id="straightW_10" depart="9.00" departLane="edgeW_O_2" departPos="5.41" departSpeed="0.00" departDelay="0.00" arrival="178.00" arrivalLane="edgeE_I_1" arrivalPos="979.30" arrivalSpeed="21.45" duration="169.00" routeLength="1294.59" waitingTime="94.00" waitingCount="1" stopTime="0.00" timeLoss="106.55" rerouteNo="0" devices="tripinfo_straightW_10" vType="vehicleW_10" speedFactor="0.99" vaporized=""/>
    <tripinfo id="straightE_97" depart="97.00" departLane="edgeE_O_1" departPos="5.55" departSpeed="0.00" departDelay="0.00" arrival="178.00" arrivalLane="edgeW_I_1" arrivalPos="279.30" arrivalSpeed="21.12" duration="81.00" routeLength="1294.45" waitingTime="0.00" waitingCount="0" stopTime="0.00" timeLoss="6.44" rerouteNo="0" devices="tripinfo_straightE_97" vType="vehicleE_97" speedFactor="0.96" vaporized=""/>
    <tripinfo id="straightW_117" depart="123.00" departLane="edgeW_O_2" departPos="4.69" departSpeed="0.00" departDelay="0.00" arrival="178.00" arrivalLane="edgeE_I_4" arrivalPos="979.30" arrivalSpeed="26.94" duration="55.00" routeLength="1295.31" waitingTime="0.00" waitingCount="0" stopTime="0.00" timeLoss="6.03" rerouteNo="0" devices="tripinfo_straightW_117" vType="vehicleW_117" speedFactor="1.25" vaporized=""/>
    <tripinfo id="leftE_53" depart="48.00" departLane="edgeE_O_3" departPos="5.12" departSpeed="0.00" departDelay="0.00" arrival="179.00" arrivalLane="edgeS_I_1" arrivalPos="882.50" arrivalSpeed="15.69" duration="131.00" routeLength="1890.10" waitingTime="0.00" waitingCount="0" stopTime="0.00" timeLoss="10.13" rerouteNo="0" devices="tripinfo_leftE_53" vType="vehicleE_53" speedFactor="0.86" vaporized=""/>
    <tripinfo id="straightW_40" depart="33.00" departLane="edgeW_O_2" departPos="5.53" departSpeed="0.00" departDelay="0.00" arrival="180.00" arrivalLane="edgeE_I_1" arrivalPos="979.30" arrivalSpeed="21.00" duration="147.00" routeLength="1294.47" waitingTime="66.00" waitingCount="3" stopTime="0.00" timeLoss="89.72" rerouteNo="0" devices="tripinfo_straightW_40" vType="vehicleW_40" speedFactor="1.08" vaporized=""/>
    <tripinfo id="straightW_48" depart="39.00" departLane="edgeW_O_2" departPos="4.74" departSpeed="0.00" departDelay="0.00" arrival="180.00" arrivalLane="edgeE_I_2" arrivalPos="979.30" arrivalSpeed="21.51" duration="141.00" routeLength="1295.26" waitingTime="66.00" waitingCount="1" stopTime="0.00" timeLoss="78.63" rerouteNo="0" devices="tripinfo_straightW_48" vType="vehicleW_48" speedFactor="1.00" vaporized=""/>
    <tripinfo id="straightE_102" depart="102.00" departLane="edgeE_O_3" departPos="4.68" departSpeed="0.00" departDelay="0.00" arrival="182.00" arrivalLane="edgeW_I_1" arrivalPos="279.30" arrivalSpeed="22.18" duration="80.00" routeLength="1295.32" waitingTime="0.00" waitingCount="0" stopTime="0.00" timeLoss="7.36" rerouteNo="0" devices="tripinfo_straightE_102" vType="vehicleE_102" speedFactor="0.98" vaporized=""/>
    <tripinfo id="straightW_115" depart="121.00" departLane="edgeW_O_1" departPos="4.18" departSpeed="0.00" departDelay="0.00" arrival="184.00" arrivalLane="edgeE_I_3" arrivalPos="979.30" arrivalSpeed="24.28" duration="63.00" routeLength="1295.82" waitingTime="0.00" waitingCount="0" stopTime="0.00" timeLoss="6.57" rerouteNo="0" devices="tripinfo_straightW_115" vType="vehicleW_115" speedFactor="1.10" vaporized=""/>
    <tripinfo id="straightW_109" depart="114.00" departLane="edgeW_O_2" departPos="5.18" departSpeed="0.00" departDelay="0.00" arrival="185.00" arrivalLane="edgeE_I_1" arrivalPos="979.30" arrivalSpeed="19.99" duration="71.00" routeLength="1294.82" waitingTime="0.00" waitingCount="0" stopTime="0.00" timeLoss="6.47" rerouteNo="0" devices="tripinfo_straightW_109" vType="vehicleW_109" speedFactor="0.96" vaporized=""/>
    <tripinfo id="straightW_55" depart="49.00" departLane="edgeW_O_2" departPos="4.23" departSpeed="0.00" departDelay="0.00" arrival="187.00" arrivalLane="edgeE_I_1" arrivalPos="979.30" arrivalSpeed="19.29" duration="138.00" routeLength="1295.77" waitingTime="55.00" waitingCount="1" stopTime="0.00" timeLoss="68.74" rerouteNo="0" devices="tripinfo_straightW_55" vType="vehicleW_55" speedFactor="0.89" vaporized=""/>
    <tripinfo id="straightE_107" depart="109.00" departLane="edgeE_O_3" departPos="3.98" departSpeed="0.00" departDelay="0.00" arrival="189.00" arrivalLane="edgeW_I_2" arrivalPos="279.30" arrivalSpeed="25.13" duration="80.00" routeLength="1296.02" waitingTime="0.00" waitingCount="0" stopTime="0.00" timeLoss="16.29" rerouteNo="0" devices="tripinfo_straightE_107" vType="vehicleE_107" speedFactor="1.12" vaporized=""/>
    <tripinfo id="straightW_116" depart="122.00" departLane="edgeW_O_3" departPos="5.69" departSpeed="0.00" departDelay="0.00" arrival="190.00" arrivalLane="edgeE_I_2" arrivalPos="979.30" arrivalSpeed="22.40" duration="68.00" routeLength="1294.31" waitingTime="0.00" waitingCount="0" stopTime="0.00" timeLoss="7.20" rerouteNo="0" devices="tripinfo_straightW_116" vType="vehicleW_116" speedFactor="1.01" vaporized=""/>
    <tripinfo id="straightW_57" depart="56.00" departLane="edgeW_O_2" departPos="5.54" departSpeed="0.00" departDelay="0.00" arrival="194.00" arrivalLane="edgeE_I_1" arrivalPos="979.30" arrivalSpeed="16.73" duration="138.00" routeLength="1294.46" waitingTime="43.00" waitingCount="2" stopTime="0.00" timeLoss="59.57" rerouteNo="0" devices="tripinfo_straightW_57" vType="vehicleW_57" speedFactor="0.79" vaporized=""/>
    <tripinfo id="straightW_119" depart="126.00" departLane="edgeW_O_2" departPos="5.56" departSpeed="0.00" departDelay="1.00" arrival="195.00" arrivalLane="edgeE_I_2" arrivalPos="979.30" arrivalSpeed="21.65" duration="69.00" routeLength="1294.44" waitingTime="0.00" waitingCount="0" stopTime="0.00" timeLoss="6.20" rerouteNo="0" devices="tripinfo_straightW_119" vType="vehicleW_119" speedFactor="0.99" vaporized=""/>
    <tripinfo id="leftW_8" depart="8.00" departLane="edgeW_O_4" departPos="5.32" departSpeed="0.00" departDelay="0.00" arrival="196.00" arrivalLane="edgeN_I_3" arrivalPos="582.50" arrivalSpeed="16.99" duration="188.00" routeLength="892.44" waitingTime="118.00" waitingCount="2" stopTime="0.00" timeLoss="133.31" rerouteNo="0" devices="tripinfo_leftW_8" vType="vehicleW_8" speedFactor="0.88" vaporized=""/>