<?xml version="1.0" encoding="UTF-8"?>

<!-- generated on 2021-10-23 04:06:19 by Eclipse SUMO sumo Version 1.10.0
<configuration xmlns:xsi="http://www.w3.org/2001/XMLSchema-instance" xsi:noNamespaceSchemaLocation="http://sumo.dlr.de/xsd/sumoConfiguration.xsd">

    <input>
        <net-file value="data11/cross.net.xml"/>
        <route-files value="data11/cross.rou.xml"/>
        <additional-files value="data11/cross.tls.xml"/>
    </input>

    <output>
        <tripinfo-output value="data11/tripinfo.xml"/>
        <tripinfo-output.write-unfinished value="true"/>
    </output>

    <time>
        <begin value="0"/>
        <step-length value="1"/>
    </time>

    <processing>
        <threads value="5"/>
        <time-to-teleport value="-1"/>
    </processing>

    <report>
        <verbose value="true"/>
        <no-warnings value="true"/>
        <no-step-log value="true"/>
    </report>

    <traci_server>
        <remote-port value="54644"/>
    </traci_server>

    <gui_only>
        <gui-settings-file value="data11/viewsettings.xml"/>
        <tracker-interval value="1"/>
    </gui_only>

</configuration>
-->

<tripinfos xmlns:xsi="http://www.w3.org/2001/XMLSchema-instance" xsi:noNamespaceSchemaLocation="http://sumo.dlr.de/xsd/tripinfo_file.xsd">
    <tripinfo id="rightE_46" depart="31.00" departLane="edgeE_O_1" departPos="4.65" departSpeed="0.00" departDelay="0.00" arrival="101.00" arrivalLane="edgeN_I_1" arrivalPos="385.70" arrivalSpeed="14.46" duration="70.00" routeLength="873.71" waitingTime="0.00" waitingCount="0" stopTime="0.00" timeLoss="7.82" rerouteNo="0" devices="tripinfo_rightE_46" vType="vehicleE_46" speedFactor="1.07" vaporized=""/>
    <tripinfo id="leftW_19" depart="16.00" departLane="edgeW_O_3" departPos="4.09" departSpeed="0.00" departDelay="0.00" arrival="116.00" arrivalLane="edgeN_I_3" arrivalPos="385.70" arrivalSpeed="17.47" duration="100.00" routeLength="1395.09" waitingTime="0.00" waitingCount="0" stopTime="0.00" timeLoss="11.14" rerouteNo="0" devices="tripinfo_leftW_19" vType="vehicleW_19" speedFactor="1.23" vaporized=""/>
    <tripinfo id="straightW_1" depart="0.00" departLane="edgeW_O_2" departPos="4.10" departSpeed="0.00" departDelay="0.00" arrival="130.00" arrivalLane="edgeE_I_1" arrivalPos="482.50" arrivalSpeed="11.87" duration="130.00" routeLength="1495.90" waitingTime="0.00" waitingCount="0" stopTime="0.00" timeLoss="8.09" rerouteNo="0" devices="tripinfo_straightW_1" vType="vehicleW_1" speedFactor="1.01" vaporized=""/>
    <tripinfo id="straightW_8" depart="6.00" departLane="edgeW_O_3" departPos="5.37" departSpeed="0.00" departDelay="0.00" arrival="135.00" arrivalLane="edgeE_I_1" arrivalPos="482.50" arrivalSpeed="11.38" duration="129.00" routeLength="1494.63" waitingTime="0.00" waitingCount="0" stopTime="0.00" timeLoss="8.93" rerouteNo="0" devices="tripinfo_straightW_8" vType="vehicleW_8" speedFactor="1.02" vaporized=""/>
    <tripinfo id="uturnN_9" depart="7.00" departLane="edgeN_O_4" departPos="5.02" departSpeed="0.00" departDelay="0.00" arrival="140.00" arrivalLane="edgeN_I_3" arrivalPos="385.70" arrivalSpeed="15.55" duration="133.00" routeLength="771.06" waitingTime="71.00" waitingCount="1" stopTime="0.00" timeLoss="85.25" rerouteNo="0" devices="tripinfo_uturnN_9" vType="vehicleN_9" speedFactor="1.09" vaporized=""/>
    <tripinfo id="straightE_20" depart="16.00" departLane="edgeE_O_2" departPos="4.44" departSpeed="0.00" departDelay="0.00" arrival="140.00" arrivalLane="edgeW_I_1" arrivalPos="982.50" arrivalSpeed="12.30" duration="124.00" routeLength="1495.56" waitingTime="0.00" waitingCount="0" stopTime="0.00" timeLoss="10.57" rerouteNo="0" devices="tripinfo_straightE_20" vType="vehicleE_20" speedFactor="1.10" vaporized=""/>
    <tripinfo id="uturnN_25" depart="19.00" departLane="edgeN_O_4" departPos="4.81" departSpeed="0.00" departDelay="0.00" arrival="144.00" arrivalLane="edgeN_I_4" arrivalPos="385.70" arrivalSpeed="15.90" duration="125.00" routeLength="771.27" waitingTime="62.00" waitingCount="1" stopTime="0.00" timeLoss="80.94" rerouteNo="0" devices="tripinfo_uturnN_25" vType="vehicleN_25" speedFactor="1.20" vaporized=""/>
    <tripinfo id="straightE_18" depart="15.00" departLane="edgeE_O_3" departPos="5.67" departSpeed="0.00" departDelay="2.00" arrival="151.00" arrivalLane="edgeW_I_2" arrivalPos="982.50" arrivalSpeed="11.52" duration="136.00" routeLength="1494.33" waitingTime="0.00" waitingCount="0" stopTime="0.00" timeLoss="9.41" rerouteNo="0" devices="tripinfo_straightE_18" vType="vehicleE_18" speedFactor="0.98" vaporized=""/>
    <tripinfo id="straightE_24" depart="18.00" departLane="edgeE_O_3" departPos="4.97" departSpeed="0.00" departDelay="0.00" arrival="151.00" arrivalLane="edgeW_I_1" arrivalPos="982.50" arrivalSpeed="11.18" duration="133.00" routeLength="1495.03" waitingTime="0.00" waitingCount="0" stopTime="0.00" timeLoss="8.17" rerouteNo="0" devices="tripinfo_straightE_24" vType="vehicleE_24" speedFactor="1.00" vaporized=""/>
    <tripinfo id="straightE_27" depart="21.00" departLane="edgeE_O_3" departPos="4.42" departSpeed="0.00" departDelay="2.00" arrival="151.00" arrivalLane="edgeW_I_3" arrivalPos="982.50" arrivalSpeed="12.32" duration="130.00" routeLength="1495.58" waitingTime="0.00" waitingCount="0" stopTime="0.00" timeLoss="10.22" rerouteNo="0" devices="tripinfo_straightE_27" vType="vehicleE_27" speedFactor="1.05" vaporized=""/>
    <tripinfo id="straightE_42" depart="29.00" departLane="edgeE_O_3" departPos="4.23" departSpeed="0.00" departDelay="0.00" arrival="152.00" arrivalLane="edgeW_I_3" arrivalPos="982.50" arrivalSpeed="13.30" duration="123.00" routeLength="1495.77" waitingTime="0.00" waitingCount="0" stopTime="0.00" timeLoss="12.82" rerouteNo="0" devices="tripinfo_straightE_42" vType="vehicleE_42" speedFactor="1.13" vaporized=""/>
    <tripinfo id="leftN_3" depart="2.00" departLane="edgeN_O_4" departPos="5.69" departSpeed="0.00" departDelay="0.00" arrival="155.00" arrivalLane="edgeE_I_1" arrivalPos="482.50" arrivalSpeed="11.60" duration="153.00" routeLength="893.31" waitingTime="73.00" waitingCount="1" stopTime="0.00" timeLoss="85.22" rerouteNo="0" devices="tripinfo_leftN_3" vType="vehicleN_3" speedFactor="1.00" vaporized=""/>
    <tripinfo id="uturnN_76" depart="48.00" departLane="edgeN_O_4" departPos="4.39" departSpeed="0.00" departDelay="0.00" arrival="155.00" arrivalLane="edgeN_I_3" arrivalPos="385.70" arrivalSpeed="13.22" duration="107.00" routeLength="771.69" waitingTime="36.00" waitingCount="1" stopTime="0.00" timeLoss="54.03" rerouteNo="0" devices="tripinfo_uturnN_76" vType="vehicleN_76" speedFactor="0.99" vaporized=""/>
    <tripinfo id="straightS_34" depart="24.00" departLane="edgeS_O_3" departPos="5.02" departSpeed="0.00" departDelay="0.00" arrival="157.00" arrivalLane="edgeN_I_2" arrivalPos="385.70" arrivalSpeed="15.92" duration="133.00" routeLength="1394.98" waitingTime="39.00" waitingCount="1" stopTime="0.00" timeLoss="53.12" rerouteNo="0" devices="tripinfo_straightS_34" vType="vehicleS_34" speedFactor="1.13" vaporized=""/>
    <tripinfo id="uturnN_81" depart="51.00" departLane="edgeN_O_4" departPos="4.53" departSpeed="0.00" departDelay="0.00" arrival="157.00" arrivalLane="edgeN_I_4" arrivalPos="385.70" arrivalSpeed="14.90" duration="106.00" routeLength="771.55" waitingTime="33.00" waitingCount="1" stopTime="0.00" timeLoss="55.12" rerouteNo="0" devices="tripinfo_uturnN_81" vType="vehicleN_81" speedFactor="1.05" vaporized=""/>
    <tripinfo id="straightE_43" depart="30.00" departLane="edgeE_O_2" departPos="5.42" departSpeed="0.00" departDelay="0.00" arrival="158.00" arrivalLane="edgeW_I_1" arrivalPos="982.50" arrivalSpeed="11.47" duration="128.00" routeLength="1494.58" waitingTime="0.00" waitingCount="0" stopTime="0.00" timeLoss="9.37" rerouteNo="0" devices="tripinfo_straightE_43" vType="vehicleE_43" speedFactor="1.05" vaporized=""/>
    <tripinfo id="straightS_0" depart="0.00" departLane="edgeS_O_3" departPos="4.43" departSpeed="0.00" departDelay="0.00" arrival="161.00" arrivalLane="edgeN_I_1" arrivalPos="385.70" arrivalSpeed="13.64" duration="161.00" routeLength="1395.57" waitingTime="54.00" waitingCount="1" stopTime="0.00" timeLoss="67.95" rerouteNo="0" devices="tripinfo_straightS_0" vType="vehicleS_0" speedFactor="0.97" vaporized=""/>
    <tripinfo id="straightS_38" depart="26.00" departLane="edgeS_O_2" departPos="5.28" departSpeed="0.00" departDelay="0.00" arrival="161.00" arrivalLane="edgeN_I_3" arrivalPos="385.70" arrivalSpeed="14.62" duration="135.00" routeLength="1394.72" waitingTime="32.00" waitingCount="1" stopTime="0.00" timeLoss="47.88" rerouteNo="0" devices="tripinfo_straightS_38" vType="vehicleS_38" speedFactor="1.03" vaporized=""/>
    <tripinfo id="straightS_4" depart="2.00" departLane="edgeS_O_1" departPos="4.50" departSpeed="0.00" departDelay="0.00" arrival="162.00" arrivalLane="edgeN_I_2" arrivalPos="385.70" arrivalSpeed="13.59" duration="160.00" routeLength="1395.50" waitingTime="53.00" waitingCount="1" stopTime="0.00" timeLoss="66.00" rerouteNo="0" devices="tripinfo_straightS_4" vType="vehicleS_4" speedFactor="0.96" vaporized=""/>
    <tripinfo id="straightS_77" depart="48.00" departLane="edgeS_O_3" departPos="4.57" departSpeed="0.00" departDelay="0.00" arrival="163.00" arrivalLane="edgeN_I_4" arrivalPos="385.70" arrivalSpeed="16.10" duration="115.00" routeLength="1395.43" waitingTime="20.00" waitingCount="1" stopTime="0.00" timeLoss="34.89" rerouteNo="0" devices="tripinfo_straightS_77" vType="vehicleS_77" speedFactor="1.13" vaporized=""/>
    <tripinfo id="straightS_13" depart="10.00" departLane="edgeS_O_3" departPos="5.22" departSpeed="0.00" departDelay="0.00" arrival="164.00" arrivalLane="edgeN_I_1" arrivalPos="385.70" arrivalSpeed="13.27" duration="154.00" routeLength="1394.78" waitingTime="46.00" waitingCount="1" stopTime="0.00" timeLoss="60.50" rerouteNo="0" devices="tripinfo_straightS_13" vType="vehicleS_13" speedFactor="0.97" vaporized=""/>
    <tripinfo id="straightS_29" depart="21.00" departLane="edgeS_O_3" departPos="5.71" departSpeed="0.00" departDelay="0.00" arrival="164.00" arrivalLane="edgeN_I_2" arrivalPos="385.70" arrivalSpeed="14.36" duration="143.00" routeLength="1394.29" waitingTime="37.00" waitingCount="1" stopTime="0.00" timeLoss="53.60" rerouteNo="0" devices="tripinfo_straightS_29" vType="vehicleS_29" speedFactor="1.01" vaporized=""/>
    <tripinfo id="straightS_59" depart="38.00" departLane="edgeS_O_1" departPos="4.30" departSpeed="0.00" departDelay="0.00" arrival="164.00" arrivalLane="edgeN_I_3" arrivalPos="385.70" arrivalSpeed="14.12" duration="126.00" routeLength="1395.70" waitingTime="22.00" waitingCount="1" stopTime="0.00" timeLoss="38.22" rerouteNo="0" devices="tripinfo_straightS_59" vType="vehicleS_59" speedFactor="1.03" vaporized=""/>
    <tripinfo id="straightS_33" depart="23.00" departLane="edgeS_O_2" departPos="4.46" departSpeed="0.00" departDelay="0.00" arrival="165.00" arrivalLane="edgeN_I_1" arrivalPos="385.70" arrivalSpeed="12.46" duration="142.00" routeLength="1395.54" waitingTime="33.00" waitingCount="1" stopTime="0.00" timeLoss="47.37" rerouteNo="0" devices="tripinfo_straightS_33" vType="vehicleS_33" speedFactor="0.95" vaporized=""/>
    <tripinfo id="straightS_56" depart="36.00" departLane="edgeS_O_1" departPos="5.59" departSpeed="0.00" departDelay="0.00" arrival="166.00" arrivalLane="edgeN_I_3" arrivalPos="385.70" arrivalSpeed="15.31" duration="130.00" routeLength="1394.41" waitingTime="20.00" waitingCount="1" stopTime="0.00" timeLoss="46.66" rerouteNo="0" devices="tripinfo_straightS_56" vType="vehicleS_56" speedFactor="1.08" vaporized=""/>
    <tripinfo id="straightE_64" depart="41.00" departLane="edgeE_O_3" departPos="5.24" departSpeed="0.00" departDelay="0.00" arrival="166.00" arrivalLane="edgeW_I_1" arrivalPos="982.50" arrivalSpeed="12.13" duration="125.00" routeLength="1494.76" waitingTime="0.00" waitingCount="0" stopTime="0.00" timeLoss="9.50" rerouteNo="0" devices="tripinfo_straightE_64" vType="vehicleE_64" speedFactor="1.08" vaporized=""/>
    <tripinfo id="straightS_101" depart="65.00" departLane="edgeS_O_2" departPos="4.81" departSpeed="0.00" departDelay="0.00" arrival="166.00" arrivalLane="edgeN_I_4" arrivalPos="385.70" arrivalSpeed="16.98" duration="101.00" routeLength="1395.19" waitingTime="4.00" waitingCount="1" stopTime="0.00" timeLoss="24.57" rerouteNo="0" devices="tripinfo_straightS_101" vType="vehicleS_101" speedFactor="1.19" vaporized=""/>
    <tripinfo id="straightS_48" depart="32.00" departLane="edgeS_O_1" departPos="5.21" departSpeed="0.00" departDelay="0.00" arrival="168.00" arrivalLane="edgeN_I_2" arrivalPos="385.70" arrivalSpeed="13.29" duration="136.00" routeLength="1394.79" waitingTime="23.00" waitingCount="1" stopTime="0.00" timeLoss="37.18" rerouteNo="0" devices="tripinfo_straightS_48" vType="vehicleS_48" speedFactor="0.92" vaporized=""/>
    <tripinfo id="straightS_95" depart="61.00" departLane="edgeS_O_3" departPos="4.18" departSpeed="0.00" departDelay="1.00" arrival="170.00" arrivalLane="edgeN_I_2" arrivalPos="385.70" arrivalSpeed="13.77" duration="109.00" routeLength="1395.82" waitingTime="0.00" waitingCount="0" stopTime="0.00" timeLoss="16.13" rerouteNo="0" devices="tripinfo_straightS_95" vType="vehicleS_95" speedFactor="0.98" vaporized=""/>
    <tripinfo id="straightS_39" depart="27.00" departLane="edgeS_O_1" departPos="5.47" departSpeed="0.00" departDelay="0.00" arrival="171.00" arrivalLane="edgeN_I_1" arrivalPos="385.70" arrivalSpeed="11.63" duration="144.00" routeLength="1394.53" waitingTime="21.00" waitingCount="1" stopTime="0.00" timeLoss="37.19" rerouteNo="0" devices="tripinfo_straightS_39" vType="vehicleS_39" speedFactor="0.84" vaporized=""/>
    <tripinfo id="leftN_10" depart="10.00" departLane="edgeN_O_4" departPos="5.33" departSpeed="0.00" departDelay="2.00" arrival="172.00" arrivalLane="edgeE_I_1" arrivalPos="482.50" arrivalSpeed="8.31" duration="162.00" routeLength="893.67" waitingTime="65.00" waitingCount="1" stopTime="0.00" timeLoss="79.50" rerouteNo="0" devices="tripinfo_leftN_10" vType="vehicleN_10" speedFactor="0.82" vaporized=""/>
    <tripinfo id="straightE_60" depart="38.00" departLane="edgeE_O_2" departPos="5.24" departSpeed="0.00" departDelay="0.00" arrival="172.00" arrivalLane="edgeW_I_1" arrivalPos="982.50" arrivalSpeed="11.68" duration="134.00" routeLength="1494.76" waitingTime="0.00" waitingCount="0" stopTime="0.00" timeLoss="13.68" rerouteNo="0" devices="tripinfo_straightE_60" vType="vehicleE_60" speedFactor="1.03" vaporized=""/>
    <tripinfo id="straightS_75" depart="47.00" departLane="edgeS_O_2" departPos="5.70" departSpeed="0.00" departDelay="0.00" arrival="172.00" arrivalLane="edgeN_I_3" arrivalPos="385.70" arrivalSpeed="12.59" duration="125.00" routeLength="1394.30" waitingTime="6.00" waitingCount="1" stopTime="0.00" timeLoss="23.11" rerouteNo="0" devices="tripinfo_straightS_75" vType="vehicleS_75" speedFactor="0.89" vaporized=""/>
    <tripinfo id="straightS_110" depart="70.00" departLane="edgeS_O_2" departPos="5.33" departSpeed="0.00" departDelay="0.00" arrival="172.00" arrivalLane="edgeN_I_2" arrivalPos="385.70" arrivalSpeed="13.58" duration="102.00" routeLength="1394.67" waitingTime="0.00" waitingCount="0" stopTime="0.00" timeLoss="12.86" rerouteNo="0" devices="tripinfo_straightS_110" vType="vehicleS_110" speedFactor="1.01" vaporized=""/>
    <tripinfo id="straightS_124" depart="77.00" departLane="edgeS_O_2" departPos="4.64" departSpeed="0.00" departDelay="0.00" arrival="172.00" arrivalLane="edgeN_I_4" arrivalPos="385.70" arrivalSpeed="15.25" duration="95.00" routeLength="1395.36" waitingTime="0.00" waitingCount="0" stopTime="0.00" timeLoss="13.68" rerouteNo="0" devices="tripinfo_straightS_124" vType="vehicleS_124" speedFactor="1.11" vaporized=""/>
    <tripinfo id="leftN_32" depart="23.00" departLane="edgeN_O_4" departPos="5.18" departSpeed="0.00" departDelay="0.00" arrival="173.00" arrivalLane="edgeE_I_2" arrivalPos="482.50" arrivalSpeed="10.11" duration="150.00" routeLength="893.82" waitingTime="55.00" waitingCount="1" stopTime="0.00" timeLoss="73.07" rerouteNo="0" devices="tripinfo_leftN_32" vType="vehicleN_32" speedFactor="0.88" vaporized=""/>
    <tripinfo id="straightS_80" depart="50.00" departLane="edgeS_O_3" departPos="4.97" departSpeed="0.00" departDelay="0.00" arrival="173.00" arrivalLane="edgeN_I_1" arrivalPos="385.70" arrivalSpeed="13.71" duration="123.00" routeLength="1395.03" waitingTime="10.00" waitingCount="1" stopTime="0.00" timeLoss="30.58" rerouteNo="0" devices="tripinfo_straightS_80" vType="vehicleS_80" speedFactor="0.98" vaporized=""/>
    <tripinfo id="straightS_91" depart="58.00" departLane="edgeS_O_3" departPos="5.04" departSpeed="0.00" departDelay="0.00" arrival="175.00" arrivalLane="edgeN_I_1" arrivalPos="385.70" arrivalSpeed="13.01" duration="117.00" routeLength="1394.96" waitingTime="0.00" waitingCount="0" stopTime="0.00" timeLoss="16.73" rerouteNo="0" devices="tripinfo_straightS_91" vType="vehicleS_91" speedFactor="0.90" vaporized=""/>
    <tripinfo id="straightE_50" depart="33.00" departLane="edgeE_O_2" departPos="5.30" departSpeed="0.00" departDelay="1.00" arrival="177.00" arrivalLane="edgeW_I_1" arrivalPos="982.50" arrivalSpeed="10.13" duration="144.00" routeLength="1494.70" waitingTime="0.00" waitingCount="0" stopTime="0.00" timeLoss="10.74" rerouteNo="0" devices="tripinfo_straightE_50" vType="vehicleE_50" speedFactor="0.93" vaporized=""/>
    <tripinfo id="uturnN_83" depart="54.00" departLane="edgeN_O_4" departPos="4.20" departSpeed="0.00" departDelay="1.00" arrival="177.00" arrivalLane="edgeN_I_3" arrivalPos="385.70" arrivalSpeed="12.59" duration="123.00" routeLength="771.88" waitingTime="42.00" waitingCount="2" stopTime="0.00" timeLoss="68.40" rerouteNo="0" devices="tripinfo_uturnN_83" vType="vehicleN_83" speedFactor="0.95" vaporized=""/>
    <tripinfo id="straightS_107" depart="68.00" departLane="edgeS_O_1" departPos="5.42" departSpeed="0.00" departDelay="0.00" arrival="177.00" arrivalLane="edgeN_I_1" arrivalPos="385.70" arrivalSpeed="12.62" duration="109.00" routeLength="1394.58" waitingTime="0.00" waitingCount="0" stopTime="0.00" timeLoss="9.11" rerouteNo="0" devices="tripinfo_straightS_107" vType="vehicleS_107" speedFactor="0.90" vaporized=""/>
    <tripinfo id="uturnN_90" depart="58.00" departLane="edgeN_O_4" departPos="4.48" departSpeed="0.00" departDelay="0.00" arrival="178.00" arrivalLane="edgeN_I_4" arrivalPos="385.70" arrivalSpeed="15.35" duration="120.00" routeLength="771.59" waitingTime="40.00" waitingCount="2" stopTime="0.00" timeLoss="73.28" rerouteNo="0" devices="tripinfo_uturnN_90" vType="vehicleN_90" speedFactor="1.11" vaporized=""/>
    <tripinfo id="straightS_132" depart="84.00" departLane="edgeS_O_3" departPos="4.83" departSpeed="0.00" departDelay="0.00" arrival="180.00" arrivalLane="edgeN_I_3" arrivalPos="385.70" arrivalSpeed="13.74" duration="96.00" routeLength="1395.17" waitingTime="0.00" waitingCount="0" stopTime="0.00" timeLoss="6.99" rerouteNo="0" devices="tripinfo_straightS_132" vType="vehicleS_132" speedFactor="1.01" vaporized=""/>
    <tripinfo id="straightS_122" depart="76.00" departLane="edgeS_O_3" departPos="4.71" departSpeed="0.00" departDelay="0.00" arrival="181.00" arrivalLane="edgeN_I_1" arrivalPos="385.70" arrivalSpeed="12.01" duration="105.00" routeLength="1395.29" waitingTime="0.00" waitingCount="0" stopTime="0.00" timeLoss="8.15" rerouteNo="0" devices="tripinfo_straightS_122" vType="vehicleS_122" speedFactor="0.93" vaporized=""/>
    <tripinfo id="straightS_117" depart="73.00" departLane="edgeS_O_1" departPos="4.51" departSpeed="0.00" departDelay="0.00" arrival="183.00" arrivalLane="edgeN_I_1" arrivalPos="385.70" arrivalSpeed="11.93" duration="110.00" routeLength="1395.49" waitingTime="0.00" waitingCount="0" stopTime="0.00" timeLoss="8.66" rerouteNo="0" devices="tripinfo_straightS_117" vType="vehicleS_117" speedFactor="0.89" vaporized=""/>
    <tripinfo id="straightS_126" depart="79.00" departLane="edgeS_O_2" departPos="5.25" departSpeed="0.00" departDelay="1.00" arrival="187.00" arrivalLane="edgeN_I_1" arrivalPos="385.70" arrivalSpeed="12.87" duration="108.00" routeLength="1394.75" waitingTime="0.00" waitingCount="0" stopTime="0.00" timeLoss="8.67" rerouteNo="0" devices="tripinfo_straightS_126" vType="vehicleS_126" speedFactor="0.91" vaporized=""/>
    <tripinfo id="uturnS_26" depart="19.00" departLane="edgeS_O_4" departPos="5.48" departSpeed="0.00" departDelay="0.00" arrival="188.00" arrivalLane="edgeS_I_1" arrivalPos="985.70" arrivalSpeed="12.27" duration="169.00" routeLength="1970.60" waitingTime="14.00" waitingCount="1" stopTime="0.00" timeLoss="30.78" rerouteNo="0" devices="tripinfo_uturnS_26" vType="vehicleS_26" speedFactor="0.95" vaporized=""/>
    <tripinfo id="uturnS_79" depart="49.00" departLane="edgeS_O_4" departPos="5.14" departSpeed="0.00" departDelay="0.00" arrival="190.00" arrivalLane="edgeS_I_2" arrivalPos="985.70" arrivalSpeed="14.91" duration="141.00" routeLength="1970.94" waitingTime="0.00" waitingCount="0" stopTime="0.00" timeLoss="24.29" rerouteNo="0" devices="tripinfo_uturnS_79" vType="vehicleS_79" speedFactor="1.12" vaporized=""/>
    <tripinfo id="straightS_118" depart="75.00" departLane="edgeS_O_1" departPos="5.28" departSpeed="0.00" departDelay="1.00" arrival="190.00" arrivalLane="edgeN_I_1" arrivalPos="385.70" arrivalSpeed="12.30" duration="115.00" routeLength="1394.72" waitingTime="0.00" waitingCount="0" stopTime="0.00" timeLoss="10.70" rerouteNo="0" devices="tripinfo_straightS_118" vType="vehicleS_118" speedFactor="0.86" vaporized=""/>
    <tripinfo id="leftS_41" depart="29.00" departLane="edgeS_O_4" departPos="4.58" departSpeed="0.00" departDelay="0.00" arrival="194.00" arrivalLane="edgeW_I_1" arrivalPos="982.50" arrivalSpeed="12.84" duration="165.00" routeLength="1994.42" waitingTime="14.00" waitingCount="1" stopTime="0.00" timeLoss="32.68" rerouteNo="0" devices="tripinfo_leftS_41" vType="vehicleS_41" speedFactor="1.12" vaporized=""/>
    <tripinfo id="uturnS_36" depart="25.00" departLane="edgeS_O_4" departPos="5.43" departSpeed="0.00" departDelay="0.00" arrival="196.00" arrivalLane="edgeS_I_1" arrivalPos="985.70" arrivalSpeed="12.91" duration="171.00" routeLength="1970.65" waitingTime="9.00" waitingCount="1" stopTime="0.00" timeLoss="29.23" rerouteNo="0" devices="tripinfo_uturnS_36" vType="vehicleS_36" speedFactor="0.92" vaporized=""/>
    <tripinfo id="straightN_37" depart="26.00" departLane="edgeN_O_1" departPos="4.50" departSpeed="0.00" departDelay="0.00" arrival="197.00" arrivalLane="edgeS_I_2" arrivalPos="985.70" arrivalSpeed="15.52" duration="171.00" routeLength="1395.50" waitingTime="74.00" waitingCount="1" stopTime="0.00" timeLoss="88.66" rerouteNo="0" devices="tripinfo_straightN_37" vType="vehicleN_37" speedFactor="1.14" vaporized=""/>
    <tripinfo id="straightE_16" depart="12.00" departLane="edgeE_O_3" departPos="4.09" departSpeed="0.00" departDelay="0.00" arrival="198.00" arrivalLane="edgeW_I_1" arrivalPos="982.50" arrivalSpeed="8.65" duration="186.00" routeLength="1495.91" waitingTime="0.00" waitingCount="0" stopTime="0.00" timeLoss="20.23" rerouteNo="0" devices="tripinfo_straightE_16" vType="vehicleE_16" speedFactor="0.75" vaporized=""/>
    <tripinfo id="straightN_21" depart="17.00" departLane="edgeN_O_3" departPos="4.88" departSpeed="0.00" departDelay="0.00" arrival="199.00" arrivalLane="edgeS_I_2" arrivalPos="985.70" arrivalSpeed="14.41" duration="182.00" routeLength="1395.12" waitingTime="81.00" waitingCount="1" stopTime="0.00" timeLoss="94.00" rerouteNo="0" devices="tripinfo_straightN_21" vType="vehicleN_21" speedFactor="1.07" vaporized=""/>
    <tripinfo id="straightN_12" depart="11.00" departLane="edgeN_O_3" departPos="5.22" departSpeed="0.00" departDelay="2.00" arrival="202.00" arrivalLane="edgeS_I_1" arrivalPos="985.70" arrivalSpeed="14.51" duration="191.00" routeLength="1394.78" waitingTime="85.00" waitingCount="1" stopTime="0.00" timeLoss="99.26" rerouteNo="0" devices="tripinfo_straightN_12" vType="vehicleN_12" speedFactor="1.02" vaporized=""/>
    <tripinfo id="rightE_94" depart="59.00" departLane="edgeE_O_1" departPos="4.22" departSpeed="0.00" departDelay="0.00" arrival="203.00" arrivalLane="edgeN_I_1" arrivalPos="385.70" arrivalSpeed="14.28" duration="144.00" routeLength="874.14" waitingTime="72.00" waitingCount="1" stopTime="0.00" timeLoss="82.55" rerouteNo="0" devices="tripinfo_rightE_94" vType="vehicleE_94" speedFactor="1.09" vaporized=""/>
    <tripinfo id="straightN_55" depart="38.00" departLane="edgeN_O_3" departPos="5.09" departSpeed="0.00" departDelay="2.00" arrival="204.00" arrivalLane="edgeS_I_4" arrivalPos="985.70" arrivalSpeed="16.20" duration="166.00" routeLength="1394.91" waitingTime="65.00" waitingCount="1" stopTime="0.00" timeLoss="82.49" rerouteNo="0" devices="tripinfo_straightN_55" vType="vehicleN_55" speedFactor="1.12" vaporized=""/>
    <tripinfo id="leftN_121" depart="76.00" departLane="edgeN_O_4" departPos="4.96" departSpeed="0.00" departDelay="0.00" arrival="204.00" arrivalLane="edgeE_I_1" arrivalPos="482.50" arrivalSpeed="11.46" duration="128.00" routeLength="894.04" waitingTime="24.00" waitingCount="2" stopTime="0.00" timeLoss="58.78" rerouteNo="0" devices="tripinfo_leftN_121" vType="vehicleN_121" speedFactor="0.98" vaporized=""/>
    <tripinfo id="straightN_23" depart="18.00" departLane="edgeN_O_2" departPos="5.21" departSpeed="0.00" departDelay="0.00" arrival="206.00" arrivalLane="edgeS_I_2" arrivalPos="985.70" arrivalSpeed="14.28" duration="188.00" routeLength="1394.80" waitingTime="81.00" waitingCount="1" stopTime="0.00" timeLoss="94.89" rerouteNo="0" devices="tripinfo_straightN_23" vType="vehicleN_23" speedFactor="1.01" vaporized=""/>
    <tripinfo id="uturnS_44" depart="31.00" departLane="edgeS_O_4" departPos="5.42" departSpeed="0.00" departDelay="0.00" arrival="206.00" arrivalLane="edgeS_I_1" arrivalPos="985.70" arrivalSpeed="11.49" duration="175.00" routeLength="1970.66" waitingTime="0.00" waitingCount="0" stopTime="0.00" timeLoss="25.02" rerouteNo="0" devices="tripinfo_uturnS_44" vType="vehicleS_44" speedFactor="0.87" vaporized=""/>
    <tripinfo id="straightN_51" depart="33.00" departLane="edgeN_O_3" departPos="4.49" departSpeed="0.00" departDelay="0.00" arrival="206.00" arrivalLane="edgeS_I_3" arrivalPos="985.70" arrivalSpeed="15.24" duration="173.00" routeLength="1395.51" waitingTime="67.00" waitingCount="1" stopTime="0.00" timeLoss="84.34" rerouteNo="0" devices="tripinfo_straightN_51" vType="vehicleN_51" speedFactor="1.06" vaporized=""/>
    <tripinfo id="straightN_6" depart="5.00" departLane="edgeN_O_3" departPos="4.33" departSpeed="0.00" departDelay="0.00" arrival="207.00" arrivalLane="edgeS_I_1" arrivalPos="985.70" arrivalSpeed="15.22" duration="202.00" routeLength="1395.67" waitingTime="93.00" waitingCount="1" stopTime="0.00" timeLoss="112.91" rerouteNo="0" devices="tripinfo_straightN_6" vType="vehicleN_6" speedFactor="1.05" vaporized=""/>
    <tripinfo id="straightN_53" depart="35.00" departLane="edgeN_O_2" departPos="4.74" departSpeed="0.00" departDelay="0.00" arrival="208.00" arrivalLane="edgeS_I_2" arrivalPos="985.70" arrivalSpeed="14.56" duration="173.00" routeLength="1395.26" waitingTime="65.00" waitingCount="1" stopTime="0.00" timeLoss="82.38" rerouteNo="0" devices="tripinfo_straightN_53" vType="vehicleN_53" speedFactor="1.04" vaporized=""/>
    <tripinfo id="straightN_98" depart="64.00" departLane="edgeN_O_2" departPos="4.74" departSpeed="0.00" departDelay="0.00" arrival="208.00" arrivalLane="edgeS_I_4" arrivalPos="985.70" arrivalSpeed="16.69" duration="144.00" routeLength="1395.26" waitingTime="44.00" waitingCount="1" stopTime="0.00" timeLoss="63.37" rerouteNo="0" devices="tripinfo_straightN_98" vType="vehicleN_98" speedFactor="1.17" vaporized=""/>
    <tripinfo id="rightE_115" depart="72.00" departLane="edgeE_O_1" departPos="4.62" departSpeed="0.00" departDelay="0.00" arrival="209.00" arrivalLane="edgeN_I_1" arrivalPos="385.70" arrivalSpeed="13.13" duration="137.00" routeLength="873.74" waitingTime="56.00" waitingCount="1" stopTime="0.00" timeLoss="67.99" rerouteNo="0" devices="tripinfo_rightE_115" vType="vehicleE_115" speedFactor="0.97" vaporized=""/>
    <tripinfo id="rightE_163" depart="106.00" departLane="edgeE_O_1" departPos="4.47" departSpeed="0.00" departDelay="0.00" arrival="210.00" arrivalLane="edgeN_I_2" arrivalPos="385.70" arrivalSpeed="14.29" duration="104.00" routeLength="873.89" waitingTime="25.00" waitingCount="1" stopTime="0.00" timeLoss="38.25" rerouteNo="0" devices="tripinfo_rightE_163" vType="vehicleE_163" speedFactor="1.02" vaporized=""/>
    <tripinfo id="straightN_31" depart="22.00" departLane="edgeN_O_1" departPos="5.07" departSpeed="0.00" departDelay="0.00" arrival="212.00" arrivalLane="edgeS_I_1" arrivalPos="985.70" arrivalSpeed="12.93" duration="190.00" routeLength="1394.93" waitingTime="72.00" waitingCount="1" stopTime="0.00" timeLoss="89.51" rerouteNo="0" devices="tripinfo_straightN_31" vType="vehicleN_31" speedFactor="0.93" vaporized=""/>
    <tripinfo id="straightN_74" depart="47.00" departLane="edgeN_O_3" departPos="4.68" departSpeed="0.00" departDelay="0.00" arrival="212.00" arrivalLane="edgeS_I_3" arrivalPos="985.70" arrivalSpeed="15.04" duration="165.00" routeLength="1395.32" waitingTime="56.00" waitingCount="1" stopTime="0.00" timeLoss="82.36" rerouteNo="0" devices="tripinfo_straightN_74" vType="vehicleN_74" speedFactor="1.14" vaporized=""/>
    <tripinfo id="straightN_116" depart="74.00" departLane="edgeN_O_1" departPos="5.29" departSpeed="0.00" departDelay="1.00" arrival="212.00" arrivalLane="edgeS_I_4" arrivalPos="985.70" arrivalSpeed="16.23" duration="138.00" routeLength="1394.71" waitingTime="35.00" waitingCount="1" stopTime="0.00" timeLoss="57.61" rerouteNo="0" devices="tripinfo_straightN_116" vType="vehicleN_116" speedFactor="1.17" vaporized=""/>