<?xml version="1.0" encoding="UTF-8"?>

<!-- generated on 2021-10-23 05:40:45 by Eclipse SUMO sumo Version 1.10.0
<configuration xmlns:xsi="http://www.w3.org/2001/XMLSchema-instance" xsi:noNamespaceSchemaLocation="http://sumo.dlr.de/xsd/sumoConfiguration.xsd">

    <input>
        <net-file value="data7/cross.net.xml"/>
        <route-files value="data7/cross.rou.xml"/>
        <additional-files value="data7/cross.tls.xml"/>
    </input>

    <output>
        <tripinfo-output value="data7/tripinfo.xml"/>
        <tripinfo-output.write-unfinished value="true"/>
    </output>

    <time>
        <begin value="0"/>
        <step-length value="1"/>
    </time>

    <processing>
        <threads value="5"/>
        <time-to-teleport value="-1"/>
    </processing>

    <report>
        <verbose value="true"/>
        <no-warnings value="true"/>
        <no-step-log value="true"/>
    </report>

    <traci_server>
        <remote-port value="49291"/>
    </traci_server>

    <gui_only>
        <gui-settings-file value="data7/viewsettings.xml"/>
        <tracker-interval value="1"/>
    </gui_only>

</configuration>
-->

<tripinfos xmlns:xsi="http://www.w3.org/2001/XMLSchema-instance" xsi:noNamespaceSchemaLocation="http://sumo.dlr.de/xsd/tripinfo_file.xsd">
    <tripinfo id="rightN_2" depart="2.00" departLane="edgeN_O_2" departPos="5.36" departSpeed="0.00" departDelay="0.00" arrival="49.00" arrivalLane="edgeW_I_1" arrivalPos="272.90" arrivalSpeed="16.99" duration="47.00" routeLength="663.40" waitingTime="0.00" waitingCount="0" stopTime="0.00" timeLoss="7.24" rerouteNo="0" devices="tripinfo_rightN_2" vType="vehicleN_2" speedFactor="1.07" vaporized=""/>
    <tripinfo id="straightS_0" depart="0.00" departLane="edgeS_O_6" departPos="4.42" departSpeed="0.00" departDelay="0.00" arrival="63.00" arrivalLane="edgeN_I_2" arrivalPos="385.70" arrivalSpeed="21.55" duration="63.00" routeLength="995.58" waitingTime="0.00" waitingCount="0" stopTime="0.00" timeLoss="6.00" rerouteNo="0" devices="tripinfo_straightS_0" vType="vehicleS_0" speedFactor="0.98" vaporized=""/>
    <tripinfo id="straightS_6" depart="7.00" departLane="edgeS_O_6" departPos="4.32" departSpeed="0.00" departDelay="0.00" arrival="63.00" arrivalLane="edgeN_I_3" arrivalPos="385.70" arrivalSpeed="25.42" duration="56.00" routeLength="995.68" waitingTime="0.00" waitingCount="0" stopTime="0.00" timeLoss="6.02" rerouteNo="0" devices="tripinfo_straightS_6" vType="vehicleS_6" speedFactor="1.12" vaporized=""/>
    <tripinfo id="straightN_9" depart="9.00" departLane="edgeN_O_6" departPos="5.02" departSpeed="0.00" departDelay="0.00" arrival="65.00" arrivalLane="edgeS_I_3" arrivalPos="585.70" arrivalSpeed="23.40" duration="56.00" routeLength="994.98" waitingTime="0.00" waitingCount="0" stopTime="0.00" timeLoss="5.64" rerouteNo="0" devices="tripinfo_straightN_9" vType="vehicleN_9" speedFactor="1.03" vaporized=""/>
    <tripinfo id="straightN_8" depart="8.00" departLane="edgeN_O_5" departPos="5.69" departSpeed="0.00" departDelay="0.00" arrival="69.00" arrivalLane="edgeS_I_1" arrivalPos="585.70" arrivalSpeed="21.48" duration="61.00" routeLength="994.31" waitingTime="0.00" waitingCount="0" stopTime="0.00" timeLoss="5.29" rerouteNo="0" devices="tripinfo_straightN_8" vType="vehicleN_8" speedFactor="0.92" vaporized=""/>
    <tripinfo id="straightN_15" depart="16.00" departLane="edgeN_O_3" departPos="4.15" departSpeed="0.00" departDelay="0.00" arrival="72.00" arrivalLane="edgeS_I_2" arrivalPos="585.70" arrivalSpeed="23.78" duration="56.00" routeLength="995.85" waitingTime="0.00" waitingCount="0" stopTime="0.00" timeLoss="5.73" rerouteNo="0" devices="tripinfo_straightN_15" vType="vehicleN_15" speedFactor="1.04" vaporized=""/>
    <tripinfo id="straightN_26" depart="22.00" departLane="edgeN_O_4" departPos="5.73" departSpeed="0.00" departDelay="0.00" arrival="77.00" arrivalLane="edgeS_I_2" arrivalPos="585.70" arrivalSpeed="23.03" duration="55.00" routeLength="994.27" waitingTime="0.00" waitingCount="0" stopTime="0.00" timeLoss="5.23" rerouteNo="0" devices="tripinfo_straightN_26" vType="vehicleN_26" speedFactor="1.04" vaporized=""/>
    <tripinfo id="straightE_4" depart="5.00" departLane="edgeE_O_2" departPos="4.54" departSpeed="0.00" departDelay="0.00" arrival="85.00" arrivalLane="edgeW_I_2" arrivalPos="272.90" arrivalSpeed="17.59" duration="80.00" routeLength="1095.46" waitingTime="0.00" waitingCount="0" stopTime="0.00" timeLoss="6.18" rerouteNo="0" devices="tripinfo_straightE_4" vType="vehicleE_4" speedFactor="1.10" vaporized=""/>
    <tripinfo id="rightW_11" depart="12.00" departLane="edgeW_O_1" departPos="5.35" departSpeed="0.00" departDelay="0.00" arrival="94.00" arrivalLane="edgeS_I_1" arrivalPos="585.70" arrivalSpeed="25.05" duration="82.00" routeLength="863.41" waitingTime="26.00" waitingCount="1" stopTime="0.00" timeLoss="37.52" rerouteNo="0" devices="tripinfo_rightW_11" vType="vehicleW_11" speedFactor="1.08" vaporized=""/>
    <tripinfo id="straightE_7" depart="7.00" departLane="edgeE_O_3" departPos="4.13" departSpeed="0.00" departDelay="0.00" arrival="95.00" arrivalLane="edgeW_I_2" arrivalPos="272.90" arrivalSpeed="16.27" duration="88.00" routeLength="1095.87" waitingTime="0.00" waitingCount="0" stopTime="0.00" timeLoss="7.56" rerouteNo="0" devices="tripinfo_straightE_7" vType="vehicleE_7" speedFactor="1.02" vaporized=""/>
    <tripinfo id="straightE_5" depart="8.00" departLane="edgeE_O_2" departPos="5.21" departSpeed="0.00" departDelay="2.00" arrival="97.00" arrivalLane="edgeW_I_2" arrivalPos="272.90" arrivalSpeed="15.56" duration="89.00" routeLength="1094.79" waitingTime="0.00" waitingCount="0" stopTime="0.00" timeLoss="8.17" rerouteNo="0" devices="tripinfo_straightE_5" vType="vehicleE_5" speedFactor="1.01" vaporized=""/>
    <tripinfo id="straightE_25" depart="21.00" departLane="edgeE_O_3" departPos="5.66" departSpeed="0.00" departDelay="0.00" arrival="99.00" arrivalLane="edgeW_I_3" arrivalPos="272.90" arrivalSpeed="18.46" duration="78.00" routeLength="1094.34" waitingTime="0.00" waitingCount="0" stopTime="0.00" timeLoss="6.86" rerouteNo="0" devices="tripinfo_straightE_25" vType="vehicleE_25" speedFactor="1.15" vaporized=""/>
    <tripinfo id="straightE_16" depart="16.00" departLane="edgeE_O_2" departPos="5.10" departSpeed="0.00" departDelay="0.00" arrival="100.00" arrivalLane="edgeW_I_2" arrivalPos="272.90" arrivalSpeed="17.46" duration="84.00" routeLength="1094.90" waitingTime="0.00" waitingCount="0" stopTime="0.00" timeLoss="8.30" rerouteNo="0" devices="tripinfo_straightE_16" vType="vehicleE_16" speedFactor="1.08" vaporized=""/>
    <tripinfo id="straightE_37" depart="27.00" departLane="edgeE_O_2" departPos="5.27" departSpeed="0.00" departDelay="0.00" arrival="104.00" arrivalLane="edgeW_I_3" arrivalPos="272.90" arrivalSpeed="19.20" duration="77.00" routeLength="1094.73" waitingTime="0.00" waitingCount="0" stopTime="0.00" timeLoss="8.11" rerouteNo="0" devices="tripinfo_straightE_37" vType="vehicleE_37" speedFactor="1.17" vaporized=""/>
    <tripinfo id="straightW_13" depart="14.00" departLane="edgeW_O_2" departPos="4.31" departSpeed="0.00" departDelay="0.00" arrival="108.00" arrivalLane="edgeE_I_1" arrivalPos="772.90" arrivalSpeed="19.85" duration="94.00" routeLength="1095.68" waitingTime="28.00" waitingCount="1" stopTime="0.00" timeLoss="37.63" rerouteNo="0" devices="tripinfo_straightW_13" vType="vehicleW_13" speedFactor="1.29" vaporized=""/>
    <tripinfo id="straightE_12" depart="13.00" departLane="edgeE_O_3" departPos="4.34" departSpeed="0.00" departDelay="0.00" arrival="109.00" arrivalLane="edgeW_I_1" arrivalPos="272.90" arrivalSpeed="15.33" duration="96.00" routeLength="1095.65" waitingTime="0.00" waitingCount="0" stopTime="0.00" timeLoss="8.97" rerouteNo="0" devices="tripinfo_straightE_12" vType="vehicleE_12" speedFactor="0.94" vaporized=""/>
    <tripinfo id="rightE_17" depart="17.00" departLane="edgeE_O_1" departPos="4.82" departSpeed="0.00" departDelay="0.00" arrival="116.00" arrivalLane="edgeN_I_1" arrivalPos="385.70" arrivalSpeed="20.39" duration="99.00" routeLength="1163.94" waitingTime="0.00" waitingCount="0" stopTime="0.00" timeLoss="10.73" rerouteNo="0" devices="tripinfo_rightE_17" vType="vehicleE_17" speedFactor="0.89" vaporized=""/>
    <tripinfo id="straightE_19" depart="18.00" departLane="edgeE_O_3" departPos="5.21" departSpeed="0.00" departDelay="0.00" arrival="116.00" arrivalLane="edgeW_I_2" arrivalPos="272.90" arrivalSpeed="13.76" duration="98.00" routeLength="1094.80" waitingTime="0.00" waitingCount="0" stopTime="0.00" timeLoss="7.77" rerouteNo="0" devices="tripinfo_straightE_19" vType="vehicleE_19" speedFactor="0.90" vaporized=""/>
    <tripinfo id="straightW_21" depart="20.00" departLane="edgeW_O_2" departPos="4.63" departSpeed="0.00" departDelay="0.00" arrival="119.00" arrivalLane="edgeE_I_1" arrivalPos="772.90" arrivalSpeed="16.97" duration="99.00" routeLength="1095.37" waitingTime="21.00" waitingCount="1" stopTime="0.00" timeLoss="32.72" rerouteNo="0" devices="tripinfo_straightW_21" vType="vehicleW_21" speedFactor="1.08" vaporized=""/>
    <tripinfo id="straightE_30" depart="24.00" departLane="edgeE_O_3" departPos="4.45" departSpeed="0.00" departDelay="1.00" arrival="120.00" arrivalLane="edgeW_I_2" arrivalPos="272.90" arrivalSpeed="13.96" duration="96.00" routeLength="1095.55" waitingTime="0.00" waitingCount="0" stopTime="0.00" timeLoss="7.71" rerouteNo="0" devices="tripinfo_straightE_30" vType="vehicleE_30" speedFactor="0.92" vaporized=""/>
    <tripinfo id="leftW_28" depart="23.00" departLane="edgeW_O_3" departPos="5.08" departSpeed="0.00" departDelay="1.00" arrival="121.00" arrivalLane="edgeN_I_6" arrivalPos="385.70" arrivalSpeed="23.18" duration="98.00" routeLength="692.93" waitingTime="39.00" waitingCount="2" stopTime="0.00" timeLoss="57.78" rerouteNo="0" devices="tripinfo_leftW_28" vType="vehicleW_28" speedFactor="1.01" vaporized=""/>
    <tripinfo id="rightE_34" depart="26.00" departLane="edgeE_O_1" departPos="5.33" departSpeed="0.00" departDelay="0.00" arrival="121.00" arrivalLane="edgeN_I_1" arrivalPos="385.70" arrivalSpeed="21.23" duration="95.00" routeLength="1163.43" waitingTime="0.00" waitingCount="0" stopTime="0.00" timeLoss="10.37" rerouteNo="0" devices="tripinfo_rightE_34" vType="vehicleE_34" speedFactor="0.94" vaporized=""/>
    <tripinfo id="straightW_52" depart="41.00" departLane="edgeW_O_3" departPos="5.60" departSpeed="0.00" departDelay="0.00" arrival="122.00" arrivalLane="edgeE_I_3" arrivalPos="772.90" arrivalSpeed="19.08" duration="81.00" routeLength="1094.40" waitingTime="0.00" waitingCount="0" stopTime="0.00" timeLoss="18.70" rerouteNo="0" devices="tripinfo_straightW_52" vType="vehicleW_52" speedFactor="1.16" vaporized=""/>
    <tripinfo id="straightW_24" depart="21.00" departLane="edgeW_O_3" departPos="4.41" departSpeed="0.00" departDelay="0.00" arrival="123.00" arrivalLane="edgeE_I_1" arrivalPos="772.90" arrivalSpeed="15.00" duration="102.00" routeLength="1095.59" waitingTime="17.00" waitingCount="1" stopTime="0.00" timeLoss="28.24" rerouteNo="0" devices="tripinfo_straightW_24" vType="vehicleW_24" speedFactor="0.97" vaporized=""/>
    <tripinfo id="straightE_53" depart="41.00" departLane="edgeE_O_2" departPos="5.25" departSpeed="0.00" departDelay="0.00" arrival="125.00" arrivalLane="edgeW_I_3" arrivalPos="272.90" arrivalSpeed="19.42" duration="84.00" routeLength="1094.75" waitingTime="0.00" waitingCount="0" stopTime="0.00" timeLoss="16.67" rerouteNo="0" devices="tripinfo_straightE_53" vType="vehicleE_53" speedFactor="1.21" vaporized=""/>
    <tripinfo id="rightE_44" depart="33.00" departLane="edgeE_O_1" departPos="4.49" departSpeed="0.00" departDelay="0.00" arrival="126.00" arrivalLane="edgeN_I_1" arrivalPos="385.70" arrivalSpeed="22.21" duration="93.00" routeLength="1164.27" waitingTime="0.00" waitingCount="0" stopTime="0.00" timeLoss="10.91" rerouteNo="0" devices="tripinfo_rightE_44" vType="vehicleE_44" speedFactor="0.96" vaporized=""/>
    <tripinfo id="straightE_31" depart="27.00" departLane="edgeE_O_3" departPos="5.02" departSpeed="0.00" departDelay="3.00" arrival="127.00" arrivalLane="edgeW_I_2" arrivalPos="272.90" arrivalSpeed="14.25" duration="100.00" routeLength="1094.98" waitingTime="0.00" waitingCount="0" stopTime="0.00" timeLoss="7.72" rerouteNo="0" devices="tripinfo_straightE_31" vType="vehicleE_31" speedFactor="0.88" vaporized=""/>
    <tripinfo id="straightW_1" depart="0.00" departLane="edgeW_O_2" departPos="4.08" departSpeed="0.00" departDelay="0.00" arrival="131.00" arrivalLane="edgeE_I_1" arrivalPos="772.90" arrivalSpeed="13.38" duration="131.00" routeLength="1095.92" waitingTime="33.00" waitingCount="1" stopTime="0.00" timeLoss="43.80" rerouteNo="0" devices="tripinfo_straightW_1" vType="vehicleW_1" speedFactor="0.82" vaporized=""/>
    <tripinfo id="straightW_36" depart="28.00" departLane="edgeW_O_3" departPos="4.52" departSpeed="0.00" departDelay="1.00" arrival="131.00" arrivalLane="edgeE_I_2" arrivalPos="772.90" arrivalSpeed="14.94" duration="103.00" routeLength="1095.48" waitingTime="8.00" waitingCount="1" stopTime="0.00" timeLoss="24.86" rerouteNo="0" devices="tripinfo_straightW_36" vType="vehicleW_36" speedFactor="0.92" vaporized=""/>
    <tripinfo id="straightW_33" depart="26.00" departLane="edgeW_O_2" departPos="4.56" departSpeed="0.00" departDelay="0.00" arrival="133.00" arrivalLane="edgeE_I_1" arrivalPos="772.90" arrivalSpeed="14.32" duration="107.00" routeLength="1095.44" waitingTime="12.00" waitingCount="1" stopTime="0.00" timeLoss="23.85" rerouteNo="0" devices="tripinfo_straightW_33" vType="vehicleW_33" speedFactor="0.87" vaporized=""/>
    <tripinfo id="straightE_47" depart="35.00" departLane="edgeE_O_3" departPos="4.61" departSpeed="0.00" departDelay="1.00" arrival="133.00" arrivalLane="edgeW_I_2" arrivalPos="272.90" arrivalSpeed="14.96" duration="98.00" routeLength="1095.39" waitingTime="0.00" waitingCount="0" stopTime="0.00" timeLoss="8.07" rerouteNo="0" devices="tripinfo_straightE_47" vType="vehicleE_47" speedFactor="0.91" vaporized=""/>
    <tripinfo id="straightE_54" depart="45.00" departLane="edgeE_O_2" departPos="5.15" departSpeed="0.00" departDelay="0.00" arrival="135.00" arrivalLane="edgeW_I_2" arrivalPos="272.90" arrivalSpeed="16.57" duration="90.00" routeLength="1094.85" waitingTime="0.00" waitingCount="0" stopTime="0.00" timeLoss="16.31" rerouteNo="0" devices="tripinfo_straightE_54" vType="vehicleE_54" speedFactor="1.11" vaporized=""/>
    <tripinfo id="leftE_41" depart="32.00" departLane="edgeE_O_3" departPos="5.26" departSpeed="0.00" departDelay="1.00" arrival="137.00" arrivalLane="edgeS_I_6" arrivalPos="585.70" arrivalSpeed="21.93" duration="105.00" routeLength="1392.75" waitingTime="1.00" waitingCount="1" stopTime="0.00" timeLoss="14.39" rerouteNo="0" devices="tripinfo_leftE_41" vType="vehicleE_41" speedFactor="0.98" vaporized=""/>
    <tripinfo id="leftW_29" depart="26.00" departLane="edgeW_O_3" departPos="5.18" departSpeed="0.00" departDelay="3.00" arrival="138.00" arrivalLane="edgeN_I_6" arrivalPos="385.70" arrivalSpeed="25.68" duration="112.00" routeLength="692.83" waitingTime="52.00" waitingCount="3" stopTime="0.00" timeLoss="75.52" rerouteNo="0" devices="tripinfo_leftW_29" vType="vehicleW_29" speedFactor="1.12" vaporized=""/>
    <tripinfo id="straightW_40" depart="31.00" departLane="edgeW_O_3" departPos="4.34" departSpeed="0.00" departDelay="1.00" arrival="138.00" arrivalLane="edgeE_I_1" arrivalPos="772.90" arrivalSpeed="15.94" duration="107.00" routeLength="1095.66" waitingTime="13.00" waitingCount="2" stopTime="0.00" timeLoss="35.13" rerouteNo="0" devices="tripinfo_straightW_40" vType="vehicleW_40" speedFactor="1.00" vaporized=""/>
    <tripinfo id="straightW_59" depart="52.00" departLane="edgeW_O_3" departPos="5.55" departSpeed="0.00" departDelay="0.00" arrival="141.00" arrivalLane="edgeE_I_1" arrivalPos="772.90" arrivalSpeed="14.18" duration="89.00" routeLength="1094.45" waitingTime="0.00" waitingCount="0" stopTime="0.00" timeLoss="7.06" rerouteNo="0" devices="tripinfo_straightW_59" vType="vehicleW_59" speedFactor="0.88" vaporized=""/>
    <tripinfo id="leftW_63" depart="55.00" departLane="edgeW_O_3" departPos="4.30" departSpeed="0.00" departDelay="2.00" arrival="141.00" arrivalLane="edgeN_I_6" arrivalPos="385.70" arrivalSpeed="25.68" duration="86.00" routeLength="693.71" waitingTime="28.00" waitingCount="3" stopTime="0.00" timeLoss="50.71" rerouteNo="0" devices="tripinfo_leftW_63" vType="vehicleW_63" speedFactor="1.16" vaporized=""/>
    <tripinfo id="leftW_65" depart="58.00" departLane="edgeW_O_3" departPos="4.58" departSpeed="0.00" departDelay="4.00" arrival="143.00" arrivalLane="edgeN_I_6" arrivalPos="385.70" arrivalSpeed="25.92" duration="85.00" routeLength="693.43" waitingTime="25.00" waitingCount="3" stopTime="0.00" timeLoss="49.28" rerouteNo="0" devices="tripinfo_leftW_65" vType="vehicleW_65" speedFactor="1.16" vaporized=""/>
    <tripinfo id="leftW_87" depart="78.00" departLane="edgeW_O_3" departPos="4.75" departSpeed="0.00" departDelay="0.00" arrival="145.00" arrivalLane="edgeN_I_6" arrivalPos="385.70" arrivalSpeed="25.82" duration="67.00" routeLength="693.26" waitingTime="11.00" waitingCount="2" stopTime="0.00" timeLoss="30.86" rerouteNo="0" devices="tripinfo_leftW_87" vType="vehicleW_87" speedFactor="1.15" vaporized=""/>
    <tripinfo id="leftE_58" depart="47.00" departLane="edgeE_O_3" departPos="4.65" departSpeed="0.00" departDelay="0.00" arrival="149.00" arrivalLane="edgeS_I_7" arrivalPos="585.70" arrivalSpeed="23.87" duration="102.00" routeLength="1393.36" waitingTime="0.00" waitingCount="0" stopTime="0.00" timeLoss="18.08" rerouteNo="0" devices="tripinfo_leftE_58" vType="vehicleE_58" speedFactor="1.07" vaporized=""/>
    <tripinfo id="leftE_38" depart="30.00" departLane="edgeE_O_3" departPos="4.57" departSpeed="0.00" departDelay="2.00" arrival="150.00" arrivalLane="edgeS_I_5" arrivalPos="585.70" arrivalSpeed="20.13" duration="120.00" routeLength="1393.44" waitingTime="3.00" waitingCount="1" stopTime="0.00" timeLoss="18.30" rerouteNo="0" devices="tripinfo_leftE_38" vType="vehicleE_38" speedFactor="0.87" vaporized=""/>
    <tripinfo id="leftE_51" depart="39.00" departLane="edgeE_O_3" departPos="4.46" departSpeed="0.00" departDelay="0.00" arrival="151.00" arrivalLane="edgeS_I_6" arrivalPos="585.70" arrivalSpeed="19.93" duration="112.00" routeLength="1393.55" waitingTime="0.00" waitingCount="0" stopTime="0.00" timeLoss="14.79" rerouteNo="0" devices="tripinfo_leftE_51" vType="vehicleE_51" speedFactor="0.91" vaporized=""/>
    <tripinfo id="straightW_86" depart="77.00" departLane="edgeW_O_2" departPos="4.86" departSpeed="0.00" departDelay="1.00" arrival="151.00" arrivalLane="edgeE_I_2" arrivalPos="772.90" arrivalSpeed="16.89" duration="74.00" routeLength="1095.14" waitingTime="0.00" waitingCount="0" stopTime="0.00" timeLoss="7.89" rerouteNo="0" devices="tripinfo_straightW_86" vType="vehicleW_86" speedFactor="1.09" vaporized=""/>
    <tripinfo id="straightE_70" depart="60.00" departLane="edgeE_O_3" departPos="4.60" departSpeed="0.00" departDelay="0.00" arrival="152.00" arrivalLane="edgeW_I_2" arrivalPos="272.90" arrivalSpeed="15.80" duration="92.00" routeLength="1095.40" waitingTime="0.00" waitingCount="0" stopTime="0.00" timeLoss="7.64" rerouteNo="0" devices="tripinfo_straightE_70" vType="vehicleE_70" speedFactor="0.96" vaporized=""/>
    <tripinfo id="straightW_85" depart="75.00" departLane="edgeW_O_2" departPos="5.21" departSpeed="0.00" departDelay="0.00" arrival="152.00" arrivalLane="edgeE_I_1" arrivalPos="772.90" arrivalSpeed="16.65" duration="77.00" routeLength="1094.78" waitingTime="0.00" waitingCount="0" stopTime="0.00" timeLoss="6.36" rerouteNo="0" devices="tripinfo_straightW_85" vType="vehicleW_85" speedFactor="1.02" vaporized=""/>
    <tripinfo id="rightE_69" depart="59.00" departLane="edgeE_O_1" departPos="5.49" departSpeed="0.00" departDelay="0.00" arrival="158.00" arrivalLane="edgeN_I_1" arrivalPos="385.70" arrivalSpeed="20.19" duration="99.00" routeLength="1163.27" waitingTime="0.00" waitingCount="0" stopTime="0.00" timeLoss="9.98" rerouteNo="0" devices="tripinfo_rightE_69" vType="vehicleE_69" speedFactor="0.88" vaporized=""/>
    <tripinfo id="straightE_60" depart="52.00" departLane="edgeE_O_3" departPos="5.37" departSpeed="0.00" departDelay="0.00" arrival="162.00" arrivalLane="edgeW_I_1" arrivalPos="272.90" arrivalSpeed="12.79" duration="110.00" routeLength="1094.63" waitingTime="0.00" waitingCount="0" stopTime="0.00" timeLoss="9.94" rerouteNo="0" devices="tripinfo_straightE_60" vType="vehicleE_60" speedFactor="0.81" vaporized=""/>
    <tripinfo id="straightE_79" depart="72.00" departLane="edgeE_O_3" departPos="5.70" departSpeed="0.00" departDelay="5.00" arrival="163.00" arrivalLane="edgeW_I_2" arrivalPos="272.90" arrivalSpeed="15.93" duration="91.00" routeLength="1094.30" waitingTime="0.00" waitingCount="0" stopTime="0.00" timeLoss="6.97" rerouteNo="0" devices="tripinfo_straightE_79" vType="vehicleE_79" speedFactor="0.97" vaporized=""/>
    <tripinfo id="straightW_100" depart="87.00" departLane="edgeW_O_2" departPos="4.50" departSpeed="0.00" departDelay="0.00" arrival="166.00" arrivalLane="edgeE_I_1" arrivalPos="772.90" arrivalSpeed="15.89" duration="79.00" routeLength="1095.50" waitingTime="0.00" waitingCount="0" stopTime="0.00" timeLoss="6.32" rerouteNo="0" devices="tripinfo_straightW_100" vType="vehicleW_100" speedFactor="0.99" vaporized=""/>
    <tripinfo id="straightE_73" depart="62.00" departLane="edgeE_O_3" departPos="4.74" departSpeed="0.00" departDelay="1.00" arrival="175.00" arrivalLane="edgeW_I_1" arrivalPos="272.90" arrivalSpeed="12.89" duration="113.00" routeLength="1095.26" waitingTime="0.00" waitingCount="0" stopTime="0.00" timeLoss="10.20" rerouteNo="0" devices="tripinfo_straightE_73" vType="vehicleE_73" speedFactor="0.79" vaporized=""/>
    <tripinfo id="straightE_89" depart="80.00" departLane="edgeE_O_2" departPos="5.36" departSpeed="0.00" departDelay="0.00" arrival="175.00" arrivalLane="edgeW_I_2" arrivalPos="272.90" arrivalSpeed="16.78" duration="95.00" routeLength="1094.64" waitingTime="0.00" waitingCount="0" stopTime="0.00" timeLoss="18.84" rerouteNo="0" devices="tripinfo_straightE_89" vType="vehicleE_89" speedFactor="1.06" vaporized=""/>
    <tripinfo id="leftW_93" depart="83.00" departLane="edgeW_O_3" departPos="5.08" departSpeed="0.00" departDelay="0.00" arrival="180.00" arrivalLane="edgeN_I_6" arrivalPos="385.70" arrivalSpeed="18.59" duration="97.00" routeLength="692.93" waitingTime="31.00" waitingCount="2" stopTime="0.00" timeLoss="46.92" rerouteNo="0" devices="tripinfo_leftW_93" vType="vehicleW_93" speedFactor="0.83" vaporized=""/>
    <tripinfo id="leftW_116" depart="104.00" departLane="edgeW_O_3" departPos="4.10" departSpeed="0.00" departDelay="2.00" arrival="180.00" arrivalLane="edgeN_I_7" arrivalPos="385.70" arrivalSpeed="20.03" duration="76.00" routeLength="693.91" waitingTime="21.00" waitingCount="1" stopTime="0.00" timeLoss="32.09" rerouteNo="0" devices="tripinfo_leftW_116" vType="vehicleW_116" speedFactor="0.94" vaporized=""/>
    <tripinfo id="leftE_76" depart="66.00" departLane="edgeE_O_3" departPos="4.43" departSpeed="0.00" departDelay="2.00" arrival="181.00" arrivalLane="edgeS_I_6" arrivalPos="585.70" arrivalSpeed="25.17" duration="115.00" routeLength="1393.58" waitingTime="4.00" waitingCount="2" stopTime="0.00" timeLoss="36.06" rerouteNo="0" devices="tripinfo_leftE_76" vType="vehicleE_76" speedFactor="1.14" vaporized=""/>
    <tripinfo id="leftW_129" depart="116.00" departLane="edgeW_O_3" departPos="4.79" departSpeed="0.00" departDelay="0.00" arrival="182.00" arrivalLane="edgeN_I_6" arrivalPos="385.70" arrivalSpeed="20.43" duration="66.00" routeLength="693.22" waitingTime="8.00" waitingCount="1" stopTime="0.00" timeLoss="20.69" rerouteNo="0" devices="tripinfo_leftW_129" vType="vehicleW_129" speedFactor="0.91" vaporized=""/>
    <tripinfo id="leftE_78" depart="69.00" departLane="edgeE_O_3" departPos="5.68" departSpeed="0.00" departDelay="3.00" arrival="185.00" arrivalLane="edgeS_I_6" arrivalPos="585.70" arrivalSpeed="25.80" duration="116.00" routeLength="1392.33" waitingTime="8.00" waitingCount="2" stopTime="0.00" timeLoss="35.69" rerouteNo="0" devices="tripinfo_leftE_78" vType="vehicleE_78" speedFactor="1.11" vaporized=""/>
    <tripinfo id="uturnN_77" depart="65.00" departLane="edgeN_O_7" departPos="5.00" departSpeed="0.00" departDelay="0.00" arrival="186.00" arrivalLane="edgeN_I_7" arrivalPos="385.70" arrivalSpeed="23.81" duration="121.00" routeLength="771.08" waitingTime="64.00" waitingCount="1" stopTime="0.00" timeLoss="79.80" rerouteNo="0" devices="tripinfo_uturnN_77" vType="vehicleN_77" speedFactor="1.05" vaporized=""/>
    <tripinfo id="leftE_83" depart="78.00" departLane="edgeE_O_3" departPos="4.57" departSpeed="0.00" departDelay="5.00" arrival="187.00" arrivalLane="edgeS_I_6" arrivalPos="585.70" arrivalSpeed="25.00" duration="109.00" routeLength="1393.44" waitingTime="7.00" waitingCount="1" stopTime="0.00" timeLoss="26.55" rerouteNo="0" devices="tripinfo_leftE_83" vType="vehicleE_83" speedFactor="1.08" vaporized=""/>
    <tripinfo id="straightW_120" depart="106.00" departLane="edgeW_O_3" departPos="5.15" departSpeed="0.00" departDelay="0.00" arrival="187.00" arrivalLane="edgeE_I_1" arrivalPos="772.90" arrivalSpeed="15.13" duration="81.00" routeLength="1094.85" waitingTime="0.00" waitingCount="0" stopTime="0.00" timeLoss="7.73" rerouteNo="0" devices="tripinfo_straightW_120" vType="vehicleW_120" speedFactor="0.99" vaporized=""/>
    <tripinfo id="leftS_105" depart="90.00" departLane="edgeS_O_6" departPos="5.56" departSpeed="0.00" departDelay="0.00" arrival="189.00" arrivalLane="edgeW_I_3" arrivalPos="272.90" arrivalSpeed="16.59" duration="99.00" routeLength="889.60" waitingTime="30.00" waitingCount="2" stopTime="0.00" timeLoss="45.66" rerouteNo="0" devices="tripinfo_leftS_105" vType="vehicleS_105" speedFactor="1.08" vaporized=""/>
    <tripinfo id="leftE_91" depart="83.00" departLane="edgeE_O_3" departPos="5.00" departSpeed="0.00" departDelay="2.00" arrival="190.00" arrivalLane="edgeS_I_7" arrivalPos="585.70" arrivalSpeed="25.31" duration="107.00" routeLength="1393.01" waitingTime="5.00" waitingCount="1" stopTime="0.00" timeLoss="27.84" rerouteNo="0" devices="tripinfo_leftE_91" vType="vehicleE_91" speedFactor="1.13" vaporized=""/>
    <tripinfo id="uturnE_67" depart="55.00" departLane="edgeE_O_3" departPos="5.40" departSpeed="0.00" departDelay="0.00" arrival="191.00" arrivalLane="edgeE_I_1" arrivalPos="772.90" arrivalSpeed="13.56" duration="136.00" routeLength="1545.08" waitingTime="0.00" waitingCount="0" stopTime="0.00" timeLoss="13.86" rerouteNo="0" devices="tripinfo_uturnE_67" vType="vehicleE_67" speedFactor="0.89" vaporized=""/>
    <tripinfo id="uturnN_99" depart="87.00" departLane="edgeN_O_7" departPos="4.06" departSpeed="0.00" departDelay="0.00" arrival="192.00" arrivalLane="edgeN_I_7" arrivalPos="385.70" arrivalSpeed="24.81" duration="105.00" routeLength="772.02" waitingTime="46.00" waitingCount="1" stopTime="0.00" timeLoss="66.28" rerouteNo="0" devices="tripinfo_uturnN_99" vType="vehicleN_99" speedFactor="1.12" vaporized=""/>
    <tripinfo id="leftS_115" depart="102.00" departLane="edgeS_O_7" departPos="5.48" departSpeed="0.00" departDelay="0.00" arrival="194.00" arrivalLane="edgeW_I_3" arrivalPos="272.90" arrivalSpeed="13.95" duration="92.00" routeLength="889.68" waitingTime="20.00" waitingCount="1" stopTime="0.00" timeLoss="30.38" rerouteNo="0" devices="tripinfo_leftS_115" vType="vehicleS_115" speedFactor="0.94" vaporized=""/>
    <tripinfo id="uturnN_133" depart="120.00" departLane="edgeN_O_7" departPos="5.49" departSpeed="0.00" departDelay="0.00" arrival="194.00" arrivalLane="edgeN_I_7" arrivalPos="385.70" arrivalSpeed="27.13" duration="74.00" routeLength="770.59" waitingTime="16.00" waitingCount="1" stopTime="0.00" timeLoss="37.72" rerouteNo="0" devices="tripinfo_uturnN_133" vType="vehicleN_133" speedFactor="1.17" vaporized=""/>
    <tripinfo id="straightW_127" depart="114.00" departLane="edgeW_O_3" departPos="5.57" departSpeed="0.00" departDelay="0.00" arrival="196.00" arrivalLane="edgeE_I_1" arrivalPos="772.90" arrivalSpeed="15.15" duration="82.00" routeLength="1094.43" waitingTime="0.00" waitingCount="0" stopTime="0.00" timeLoss="6.32" rerouteNo="0" devices="tripinfo_straightW_127" vType="vehicleW_127" speedFactor="0.95" vaporized=""/>
    <tripinfo id="uturnS_3" depart="2.00" departLane="edgeS_O_7" departPos="4.62" departSpeed="0.00" departDelay="0.00" arrival="197.00" arrivalLane="edgeS_I_6" arrivalPos="585.70" arrivalSpeed="19.70" duration="195.00" routeLength="1171.46" waitingTime="107.00" waitingCount="1" stopTime="0.00" timeLoss="122.00" rerouteNo="0" devices="tripinfo_uturnS_3" vType="vehicleS_3" speedFactor="0.89" vaporized=""/>
    <tripinfo id="leftS_62" depart="53.00" departLane="edgeS_O_6" departPos="5.71" departSpeed="0.00" departDelay="0.00" arrival="197.00" arrivalLane="edgeW_I_3" arrivalPos="272.90" arrivalSpeed="15.11" duration="144.00" routeLength="889.45" waitingTime="68.00" waitingCount="1" stopTime="0.00" timeLoss="81.77" rerouteNo="0" devices="tripinfo_leftS_62" vType="vehicleS_62" speedFactor="0.92" vaporized=""/>
    <tripinfo id="uturnS_68" depart="57.00" departLane="edgeS_O_7" departPos="5.15" departSpeed="0.00" departDelay="0.00" arrival="197.00" arrivalLane="edgeS_I_7" arrivalPos="585.70" arrivalSpeed="26.30" duration="140.00" routeLength="1170.93" waitingTime="63.00" waitingCount="1" stopTime="0.00" timeLoss="85.38" rerouteNo="0" devices="tripinfo_uturnS_68" vType="vehicleS_68" speedFactor="1.18" vaporized=""/>