<?xml version="1.0" encoding="UTF-8"?>

<!-- generated on 2021-10-23 04:06:19 by Eclipse SUMO sumo Version 1.10.0
<configuration xmlns:xsi="http://www.w3.org/2001/XMLSchema-instance" xsi:noNamespaceSchemaLocation="http://sumo.dlr.de/xsd/sumoConfiguration.xsd">

    <input>
        <net-file value="data7/cross.net.xml"/>
        <route-files value="data7/cross.rou.xml"/>
        <additional-files value="data7/cross.tls.xml"/>
    </input>

    <output>
        <tripinfo-output value="data7/tripinfo.xml"/>
        <tripinfo-output.write-unfinished value="true"/>
    </output>

    <time>
        <begin value="0"/>
        <step-length value="1"/>
    </time>

    <processing>
        <threads value="5"/>
        <time-to-teleport value="-1"/>
    </processing>

    <report>
        <verbose value="true"/>
        <no-warnings value="true"/>
        <no-step-log value="true"/>
    </report>

    <traci_server>
        <remote-port value="54641"/>
    </traci_server>

    <gui_only>
        <gui-settings-file value="data7/viewsettings.xml"/>
        <tracker-interval value="1"/>
    </gui_only>

</configuration>
-->

<tripinfos xmlns:xsi="http://www.w3.org/2001/XMLSchema-instance" xsi:noNamespaceSchemaLocation="http://sumo.dlr.de/xsd/tripinfo_file.xsd">
    <tripinfo id="straightN_2" depart="1.00" departLane="edgeN_O_1" departPos="5.32" departSpeed="0.00" departDelay="0.00" arrival="46.00" arrivalLane="edgeS_I_1" arrivalPos="285.70" arrivalSpeed="18.60" duration="45.00" routeLength="594.68" waitingTime="0.00" waitingCount="0" stopTime="0.00" timeLoss="5.28" rerouteNo="0" devices="tripinfo_straightN_2" vType="vehicleN_2" speedFactor="1.01" vaporized=""/>
    <tripinfo id="straightS_0" depart="0.00" departLane="edgeS_O_1" departPos="4.40" departSpeed="0.00" departDelay="0.00" arrival="47.00" arrivalLane="edgeN_I_1" arrivalPos="285.70" arrivalSpeed="17.15" duration="47.00" routeLength="595.60" waitingTime="0.00" waitingCount="0" stopTime="0.00" timeLoss="4.41" rerouteNo="0" devices="tripinfo_straightS_0" vType="vehicleS_0" speedFactor="0.96" vaporized=""/>
    <tripinfo id="straightS_6" depart="6.00" departLane="edgeS_O_1" departPos="4.31" departSpeed="0.00" departDelay="0.00" arrival="48.00" arrivalLane="edgeN_I_1" arrivalPos="285.70" arrivalSpeed="19.82" duration="42.00" routeLength="595.69" waitingTime="0.00" waitingCount="0" stopTime="0.00" timeLoss="5.64" rerouteNo="0" devices="tripinfo_straightS_6" vType="vehicleS_6" speedFactor="1.11" vaporized=""/>
    <tripinfo id="straightS_7" depart="9.00" departLane="edgeS_O_1" departPos="4.55" departSpeed="0.00" departDelay="2.00" arrival="51.00" arrivalLane="edgeN_I_1" arrivalPos="285.70" arrivalSpeed="21.08" duration="42.00" routeLength="595.45" waitingTime="0.00" waitingCount="0" stopTime="0.00" timeLoss="7.61" rerouteNo="0" devices="tripinfo_straightS_7" vType="vehicleS_7" speedFactor="1.19" vaporized=""/>
    <tripinfo id="straightS_11" depart="12.00" departLane="edgeS_O_1" departPos="5.62" departSpeed="0.00" departDelay="3.00" arrival="52.00" arrivalLane="edgeN_I_1" arrivalPos="285.70" arrivalSpeed="20.77" duration="40.00" routeLength="594.38" waitingTime="0.00" waitingCount="0" stopTime="0.00" timeLoss="4.86" rerouteNo="0" devices="tripinfo_straightS_11" vType="vehicleS_11" speedFactor="1.13" vaporized=""/>
    <tripinfo id="straightS_16" depart="15.00" departLane="edgeS_O_1" departPos="4.16" departSpeed="0.00" departDelay="2.00" arrival="54.00" arrivalLane="edgeN_I_1" arrivalPos="285.70" arrivalSpeed="22.67" duration="39.00" routeLength="595.84" waitingTime="0.00" waitingCount="0" stopTime="0.00" timeLoss="6.92" rerouteNo="0" devices="tripinfo_straightS_16" vType="vehicleS_16" speedFactor="1.25" vaporized=""/>
    <tripinfo id="straightN_13" depart="11.00" departLane="edgeN_O_1" departPos="4.33" departSpeed="0.00" departDelay="0.00" arrival="55.00" arrivalLane="edgeS_I_1" arrivalPos="285.70" arrivalSpeed="17.68" duration="44.00" routeLength="595.67" waitingTime="0.00" waitingCount="0" stopTime="0.00" timeLoss="4.83" rerouteNo="0" devices="tripinfo_straightN_13" vType="vehicleN_13" speedFactor="1.04" vaporized=""/>
    <tripinfo id="straightW_8" depart="7.00" departLane="edgeW_O_2" departPos="5.44" departSpeed="0.00" departDelay="0.00" arrival="93.00" arrivalLane="edgeE_I_2" arrivalPos="292.10" arrivalSpeed="24.25" duration="86.00" routeLength="694.56" waitingTime="37.00" waitingCount="1" stopTime="0.00" timeLoss="49.59" rerouteNo="0" devices="tripinfo_straightW_8" vType="vehicleW_8" speedFactor="0.98" vaporized=""/>
    <tripinfo id="straightW_10" depart="10.00" departLane="edgeW_O_2" departPos="5.24" departSpeed="0.00" departDelay="2.00" arrival="95.00" arrivalLane="edgeE_I_2" arrivalPos="292.10" arrivalSpeed="22.93" duration="85.00" routeLength="694.76" waitingTime="35.00" waitingCount="1" stopTime="0.00" timeLoss="47.58" rerouteNo="0" devices="tripinfo_straightW_10" vType="vehicleW_10" speedFactor="0.96" vaporized=""/>
    <tripinfo id="straightE_1" depart="0.00" departLane="edgeE_O_2" departPos="4.42" departSpeed="0.00" departDelay="0.00" arrival="96.00" arrivalLane="edgeW_I_2" arrivalPos="392.10" arrivalSpeed="27.73" duration="96.00" routeLength="695.58" waitingTime="53.00" waitingCount="1" stopTime="0.00" timeLoss="65.89" rerouteNo="0" devices="tripinfo_straightE_1" vType="vehicleE_1" speedFactor="1.14" vaporized=""/>
    <tripinfo id="straightW_15" depart="13.00" departLane="edgeW_O_2" departPos="5.60" departSpeed="0.00" departDelay="1.00" arrival="96.00" arrivalLane="edgeE_I_2" arrivalPos="292.10" arrivalSpeed="24.73" duration="83.00" routeLength="694.40" waitingTime="33.00" waitingCount="1" stopTime="0.00" timeLoss="46.52" rerouteNo="0" devices="tripinfo_straightW_15" vType="vehicleW_15" speedFactor="0.97" vaporized=""/>
    <tripinfo id="rightW_3" depart="1.00" departLane="edgeW_O_1" departPos="4.58" departSpeed="0.00" departDelay="0.00" arrival="97.00" arrivalLane="edgeS_I_1" arrivalPos="285.70" arrivalSpeed="17.76" duration="96.00" routeLength="683.38" waitingTime="41.00" waitingCount="1" stopTime="0.00" timeLoss="54.06" rerouteNo="0" devices="tripinfo_rightW_3" vType="vehicleW_3" speedFactor="0.97" vaporized=""/>
    <tripinfo id="rightE_12" depart="9.00" departLane="edgeE_O_1" departPos="5.23" departSpeed="0.00" departDelay="0.00" arrival="97.00" arrivalLane="edgeN_I_1" arrivalPos="285.70" arrivalSpeed="16.40" duration="88.00" routeLength="582.73" waitingTime="41.00" waitingCount="1" stopTime="0.00" timeLoss="51.06" rerouteNo="0" devices="tripinfo_rightE_12" vType="vehicleE_12" speedFactor="0.92" vaporized=""/>
    <tripinfo id="straightE_4" depart="4.00" departLane="edgeE_O_2" departPos="4.51" departSpeed="0.00" departDelay="0.00" arrival="98.00" arrivalLane="edgeW_I_2" arrivalPos="392.10" arrivalSpeed="28.44" duration="94.00" routeLength="695.49" waitingTime="48.00" waitingCount="1" stopTime="0.00" timeLoss="64.41" rerouteNo="0" devices="tripinfo_straightE_4" vType="vehicleE_4" speedFactor="1.14" vaporized=""/>
    <tripinfo id="straightW_20" depart="16.00" departLane="edgeW_O_2" departPos="4.90" departSpeed="0.00" departDelay="0.00" arrival="98.00" arrivalLane="edgeE_I_2" arrivalPos="292.10" arrivalSpeed="25.22" duration="82.00" routeLength="695.10" waitingTime="32.00" waitingCount="1" stopTime="0.00" timeLoss="47.03" rerouteNo="0" devices="tripinfo_straightW_20" vType="vehicleW_20" speedFactor="1.02" vaporized=""/>
    <tripinfo id="rightW_31" depart="21.00" departLane="edgeW_O_1" departPos="4.43" departSpeed="0.00" departDelay="0.00" arrival="98.00" arrivalLane="edgeS_I_1" arrivalPos="285.70" arrivalSpeed="18.47" duration="77.00" routeLength="683.53" waitingTime="26.00" waitingCount="1" stopTime="0.00" timeLoss="40.58" rerouteNo="0" devices="tripinfo_rightW_31" vType="vehicleW_31" speedFactor="1.10" vaporized=""/>
    <tripinfo id="straightE_5" depart="7.00" departLane="edgeE_O_2" departPos="5.11" departSpeed="0.00" departDelay="2.00" arrival="100.00" arrivalLane="edgeW_I_2" arrivalPos="392.10" arrivalSpeed="24.66" duration="93.00" routeLength="694.89" waitingTime="47.00" waitingCount="1" stopTime="0.00" timeLoss="60.25" rerouteNo="0" devices="tripinfo_straightE_5" vType="vehicleE_5" speedFactor="1.02" vaporized=""/>
    <tripinfo id="straightW_25" depart="19.00" departLane="edgeW_O_2" departPos="4.39" departSpeed="0.00" departDelay="0.00" arrival="101.00" arrivalLane="edgeE_I_2" arrivalPos="292.10" arrivalSpeed="26.88" duration="82.00" routeLength="695.61" waitingTime="31.00" waitingCount="1" stopTime="0.00" timeLoss="47.99" rerouteNo="0" devices="tripinfo_straightW_25" vType="vehicleW_25" speedFactor="1.06" vaporized=""/>
    <tripinfo id="straightW_32" depart="22.00" departLane="edgeW_O_2" departPos="4.94" departSpeed="0.00" departDelay="0.00" arrival="102.00" arrivalLane="edgeE_I_2" arrivalPos="292.10" arrivalSpeed="27.40" duration="80.00" routeLength="695.06" waitingTime="30.00" waitingCount="1" stopTime="0.00" timeLoss="48.22" rerouteNo="0" devices="tripinfo_straightW_32" vType="vehicleW_32" speedFactor="1.11" vaporized=""/>
    <tripinfo id="rightE_42" depart="29.00" departLane="edgeE_O_1" departPos="4.22" departSpeed="0.00" departDelay="0.00" arrival="102.00" arrivalLane="edgeN_I_1" arrivalPos="285.70" arrivalSpeed="14.32" duration="73.00" routeLength="583.74" waitingTime="21.00" waitingCount="1" stopTime="0.00" timeLoss="30.19" rerouteNo="0" devices="tripinfo_rightE_42" vType="vehicleE_42" speedFactor="0.80" vaporized=""/>
    <tripinfo id="rightW_35" depart="24.00" departLane="edgeW_O_1" departPos="5.22" departSpeed="0.00" departDelay="0.00" arrival="103.00" arrivalLane="edgeS_I_1" arrivalPos="285.70" arrivalSpeed="16.88" duration="79.00" routeLength="682.74" waitingTime="20.00" waitingCount="1" stopTime="0.00" timeLoss="34.22" rerouteNo="0" devices="tripinfo_rightW_35" vType="vehicleW_35" speedFactor="0.92" vaporized=""/>
    <tripinfo id="straightE_9" depart="10.00" departLane="edgeE_O_2" departPos="4.47" departSpeed="0.00" departDelay="3.00" arrival="104.00" arrivalLane="edgeW_I_2" arrivalPos="392.10" arrivalSpeed="21.69" duration="94.00" routeLength="695.53" waitingTime="43.00" waitingCount="1" stopTime="0.00" timeLoss="55.37" rerouteNo="0" devices="tripinfo_straightE_9" vType="vehicleE_9" speedFactor="0.88" vaporized=""/>
    <tripinfo id="rightE_45" depart="32.00" departLane="edgeE_O_1" departPos="4.46" departSpeed="0.00" departDelay="1.00" arrival="104.00" arrivalLane="edgeN_I_1" arrivalPos="285.70" arrivalSpeed="14.77" duration="72.00" routeLength="583.50" waitingTime="19.00" waitingCount="1" stopTime="0.00" timeLoss="31.37" rerouteNo="0" devices="tripinfo_rightE_45" vType="vehicleE_45" speedFactor="0.85" vaporized=""/>
    <tripinfo id="straightE_14" depart="12.00" departLane="edgeE_O_2" departPos="4.31" departSpeed="0.00" departDelay="1.00" arrival="105.00" arrivalLane="edgeW_I_2" arrivalPos="392.10" arrivalSpeed="24.38" duration="93.00" routeLength="695.69" waitingTime="42.00" waitingCount="1" stopTime="0.00" timeLoss="61.95" rerouteNo="0" devices="tripinfo_straightE_14" vType="vehicleE_14" speedFactor="1.08" vaporized=""/>
    <tripinfo id="straightW_38" depart="25.00" departLane="edgeW_O_2" departPos="5.16" departSpeed="0.00" departDelay="0.00" arrival="105.00" arrivalLane="edgeE_I_2" arrivalPos="292.10" arrivalSpeed="25.75" duration="80.00" routeLength="694.84" waitingTime="28.00" waitingCount="1" stopTime="0.00" timeLoss="44.80" rerouteNo="0" devices="tripinfo_straightW_38" vType="vehicleW_38" speedFactor="1.01" vaporized=""/>
    <tripinfo id="rightE_50" depart="35.00" departLane="edgeE_O_1" departPos="5.01" departSpeed="0.00" departDelay="0.00" arrival="106.00" arrivalLane="edgeN_I_1" arrivalPos="285.70" arrivalSpeed="18.07" duration="71.00" routeLength="582.95" waitingTime="18.00" waitingCount="1" stopTime="0.00" timeLoss="36.38" rerouteNo="0" devices="tripinfo_rightE_50" vType="vehicleE_50" speedFactor="1.00" vaporized=""/>
    <tripinfo id="straightE_18" depart="15.00" departLane="edgeE_O_2" departPos="4.09" departSpeed="0.00" departDelay="0.00" arrival="107.00" arrivalLane="edgeW_I_2" arrivalPos="392.10" arrivalSpeed="24.90" duration="92.00" routeLength="695.91" waitingTime="41.00" waitingCount="1" stopTime="0.00" timeLoss="57.97" rerouteNo="0" devices="tripinfo_straightE_18" vType="vehicleE_18" speedFactor="0.99" vaporized=""/>
    <tripinfo id="straightW_39" depart="28.00" departLane="edgeW_O_2" departPos="4.54" departSpeed="0.00" departDelay="2.00" arrival="107.00" arrivalLane="edgeE_I_2" arrivalPos="292.10" arrivalSpeed="28.85" duration="79.00" routeLength="695.46" waitingTime="27.00" waitingCount="1" stopTime="0.00" timeLoss="50.19" rerouteNo="0" devices="tripinfo_straightW_39" vType="vehicleW_39" speedFactor="1.26" vaporized=""/>
    <tripinfo id="straightE_21" depart="18.00" departLane="edgeE_O_2" departPos="4.69" departSpeed="0.00" departDelay="2.00" arrival="108.00" arrivalLane="edgeW_I_2" arrivalPos="392.10" arrivalSpeed="25.61" duration="90.00" routeLength="695.31" waitingTime="40.00" waitingCount="1" stopTime="0.00" timeLoss="58.14" rerouteNo="0" devices="tripinfo_straightE_21" vType="vehicleE_21" speedFactor="1.05" vaporized=""/>
    <tripinfo id="rightE_79" depart="61.00" departLane="edgeE_O_1" departPos="4.82" departSpeed="0.00" departDelay="0.00" arrival="108.00" arrivalLane="edgeN_I_1" arrivalPos="285.70" arrivalSpeed="16.48" duration="47.00" routeLength="583.14" waitingTime="0.00" waitingCount="0" stopTime="0.00" timeLoss="9.63" rerouteNo="0" devices="tripinfo_rightE_79" vType="vehicleE_79" speedFactor="0.92" vaporized=""/>
    <tripinfo id="rightE_80" depart="63.00" departLane="edgeE_O_1" departPos="4.23" departSpeed="0.00" departDelay="1.00" arrival="109.00" arrivalLane="edgeN_I_1" arrivalPos="285.70" arrivalSpeed="18.42" duration="46.00" routeLength="583.73" waitingTime="0.00" waitingCount="0" stopTime="0.00" timeLoss="13.20" rerouteNo="0" devices="tripinfo_rightE_80" vType="vehicleE_80" speedFactor="1.03" vaporized=""/>
    <tripinfo id="straightW_57" depart="44.00" departLane="edgeW_O_2" departPos="5.14" departSpeed="0.00" departDelay="0.00" arrival="110.00" arrivalLane="edgeE_I_2" arrivalPos="292.10" arrivalSpeed="26.84" duration="66.00" routeLength="694.86" waitingTime="13.00" waitingCount="1" stopTime="0.00" timeLoss="32.27" rerouteNo="0" devices="tripinfo_straightW_57" vType="vehicleW_57" speedFactor="1.07" vaporized=""/>
    <tripinfo id="straightW_62" depart="49.00" departLane="edgeW_O_2" departPos="5.25" departSpeed="0.00" departDelay="0.00" arrival="111.00" arrivalLane="edgeE_I_2" arrivalPos="292.10" arrivalSpeed="22.83" duration="62.00" routeLength="694.75" waitingTime="7.00" waitingCount="1" stopTime="0.00" timeLoss="23.25" rerouteNo="0" devices="tripinfo_straightW_62" vType="vehicleW_62" speedFactor="0.91" vaporized=""/>
    <tripinfo id="straightE_23" depart="21.00" departLane="edgeE_O_2" departPos="4.78" departSpeed="0.00" departDelay="3.00" arrival="112.00" arrivalLane="edgeW_I_2" arrivalPos="392.10" arrivalSpeed="20.28" duration="91.00" routeLength="695.22" waitingTime="37.00" waitingCount="1" stopTime="0.00" timeLoss="51.11" rerouteNo="0" devices="tripinfo_straightE_23" vType="vehicleE_23" speedFactor="0.84" vaporized=""/>
    <tripinfo id="straightE_26" depart="24.00" departLane="edgeE_O_2" departPos="5.51" departSpeed="0.00" departDelay="5.00" arrival="112.00" arrivalLane="edgeW_I_3" arrivalPos="392.10" arrivalSpeed="24.52" duration="88.00" routeLength="694.49" waitingTime="35.00" waitingCount="1" stopTime="0.00" timeLoss="54.72" rerouteNo="0" devices="tripinfo_straightE_26" vType="vehicleE_26" speedFactor="1.02" vaporized=""/>
    <tripinfo id="straightW_75" depart="57.00" departLane="edgeW_O_2" departPos="4.69" departSpeed="0.00" departDelay="0.00" arrival="113.00" arrivalLane="edgeE_I_2" arrivalPos="292.10" arrivalSpeed="27.24" duration="56.00" routeLength="695.31" waitingTime="5.00" waitingCount="1" stopTime="0.00" timeLoss="23.17" rerouteNo="0" devices="tripinfo_straightW_75" vType="vehicleW_75" speedFactor="1.10" vaporized=""/>
    <tripinfo id="straightE_29" depart="25.00" departLane="edgeE_O_2" departPos="5.41" departSpeed="0.00" departDelay="5.00" arrival="114.00" arrivalLane="edgeW_I_2" arrivalPos="392.10" arrivalSpeed="27.15" duration="89.00" routeLength="694.59" waitingTime="35.00" waitingCount="1" stopTime="0.00" timeLoss="60.18" rerouteNo="0" devices="tripinfo_straightE_29" vType="vehicleE_29" speedFactor="1.18" vaporized=""/>
    <tripinfo id="straightE_47" depart="32.00" departLane="edgeE_O_2" departPos="4.06" departSpeed="0.00" departDelay="0.00" arrival="115.00" arrivalLane="edgeW_I_3" arrivalPos="392.10" arrivalSpeed="29.10" duration="83.00" routeLength="695.94" waitingTime="34.00" waitingCount="1" stopTime="0.00" timeLoss="53.97" rerouteNo="0" devices="tripinfo_straightE_47" vType="vehicleE_47" speedFactor="1.17" vaporized=""/>
    <tripinfo id="straightE_33" depart="27.00" departLane="edgeE_O_2" departPos="4.16" departSpeed="0.00" departDelay="5.00" arrival="116.00" arrivalLane="edgeW_I_2" arrivalPos="392.10" arrivalSpeed="25.48" duration="89.00" routeLength="695.84" waitingTime="33.00" waitingCount="1" stopTime="0.00" timeLoss="55.68" rerouteNo="0" devices="tripinfo_straightE_33" vType="vehicleE_33" speedFactor="1.00" vaporized=""/>
    <tripinfo id="straightW_84" depart="65.00" departLane="edgeW_O_2" departPos="5.14" departSpeed="0.00" departDelay="0.00" arrival="116.00" arrivalLane="edgeE_I_2" arrivalPos="292.10" arrivalSpeed="30.61" duration="51.00" routeLength="694.86" waitingTime="0.00" waitingCount="0" stopTime="0.00" timeLoss="22.94" rerouteNo="0" devices="tripinfo_straightW_84" vType="vehicleW_84" speedFactor="1.29" vaporized=""/>
    <tripinfo id="straightW_86" depart="70.00" departLane="edgeW_O_2" departPos="4.74" departSpeed="0.00" departDelay="0.00" arrival="117.00" arrivalLane="edgeE_I_2" arrivalPos="292.10" arrivalSpeed="25.46" duration="47.00" routeLength="695.26" waitingTime="0.00" waitingCount="0" stopTime="0.00" timeLoss="12.82" rerouteNo="0" devices="tripinfo_straightW_86" vType="vehicleW_86" speedFactor="1.04" vaporized=""/>
    <tripinfo id="rightE_97" depart="77.00" departLane="edgeE_O_1" departPos="4.71" departSpeed="0.00" departDelay="0.00" arrival="117.00" arrivalLane="edgeN_I_1" arrivalPos="285.70" arrivalSpeed="19.09" duration="40.00" routeLength="583.25" waitingTime="0.00" waitingCount="0" stopTime="0.00" timeLoss="6.49" rerouteNo="0" devices="tripinfo_rightE_97" vType="vehicleE_97" speedFactor="1.04" vaporized=""/>
    <tripinfo id="straightW_96" depart="77.00" departLane="edgeW_O_2" departPos="4.99" departSpeed="0.00" departDelay="0.00" arrival="120.00" arrivalLane="edgeE_I_2" arrivalPos="292.10" arrivalSpeed="28.26" duration="43.00" routeLength="695.01" waitingTime="0.00" waitingCount="0" stopTime="0.00" timeLoss="11.63" rerouteNo="0" devices="tripinfo_straightW_96" vType="vehicleW_96" speedFactor="1.15" vaporized=""/>
    <tripinfo id="straightE_49" depart="35.00" departLane="edgeE_O_2" departPos="4.65" departSpeed="0.00" departDelay="1.00" arrival="121.00" arrivalLane="edgeW_I_2" arrivalPos="392.10" arrivalSpeed="20.51" duration="86.00" routeLength="695.35" waitingTime="32.00" waitingCount="1" stopTime="0.00" timeLoss="47.18" rerouteNo="0" devices="tripinfo_straightE_49" vType="vehicleE_49" speedFactor="0.86" vaporized=""/>
    <tripinfo id="rightE_99" depart="79.00" departLane="edgeE_O_1" departPos="4.65" departSpeed="0.00" departDelay="1.00" arrival="121.00" arrivalLane="edgeN_I_1" arrivalPos="285.70" arrivalSpeed="18.34" duration="42.00" routeLength="583.31" waitingTime="0.00" waitingCount="0" stopTime="0.00" timeLoss="7.32" rerouteNo="0" devices="tripinfo_rightE_99" vType="vehicleE_99" speedFactor="1.01" vaporized=""/>
    <tripinfo id="straightE_53" depart="39.00" departLane="edgeE_O_2" departPos="5.46" departSpeed="0.00" departDelay="0.00" arrival="122.00" arrivalLane="edgeW_I_3" arrivalPos="392.10" arrivalSpeed="23.62" duration="83.00" routeLength="694.55" waitingTime="31.00" waitingCount="1" stopTime="0.00" timeLoss="47.90" rerouteNo="0" devices="tripinfo_straightE_53" vType="vehicleE_53" speedFactor="0.96" vaporized=""/>
    <tripinfo id="straightE_58" depart="44.00" departLane="edgeE_O_2" departPos="4.15" departSpeed="0.00" departDelay="0.00" arrival="124.00" arrivalLane="edgeW_I_2" arrivalPos="392.10" arrivalSpeed="22.60" duration="80.00" routeLength="695.85" waitingTime="28.00" waitingCount="1" stopTime="0.00" timeLoss="43.97" rerouteNo="0" devices="tripinfo_straightE_58" vType="vehicleE_58" speedFactor="0.93" vaporized=""/>
    <tripinfo id="straightE_59" depart="47.00" departLane="edgeE_O_2" departPos="5.24" departSpeed="0.00" departDelay="2.00" arrival="126.00" arrivalLane="edgeW_I_2" arrivalPos="392.10" arrivalSpeed="25.07" duration="79.00" routeLength="694.76" waitingTime="27.00" waitingCount="1" stopTime="0.00" timeLoss="44.97" rerouteNo="0" devices="tripinfo_straightE_59" vType="vehicleE_59" speedFactor="1.00" vaporized=""/>
    <tripinfo id="straightE_63" depart="49.00" departLane="edgeE_O_2" departPos="4.08" departSpeed="0.00" departDelay="0.00" arrival="127.00" arrivalLane="edgeW_I_2" arrivalPos="392.10" arrivalSpeed="25.90" duration="78.00" routeLength="695.92" waitingTime="27.00" waitingCount="1" stopTime="0.00" timeLoss="45.50" rerouteNo="0" devices="tripinfo_straightE_63" vType="vehicleE_63" speedFactor="1.04" vaporized=""/>
    <tripinfo id="straightE_66" depart="52.00" departLane="edgeE_O_2" departPos="5.00" departSpeed="0.00" departDelay="2.00" arrival="129.00" arrivalLane="edgeW_I_2" arrivalPos="392.10" arrivalSpeed="21.37" duration="77.00" routeLength="695.00" waitingTime="23.00" waitingCount="1" stopTime="0.00" timeLoss="39.81" rerouteNo="0" devices="tripinfo_straightE_66" vType="vehicleE_66" speedFactor="0.89" vaporized=""/>
    <tripinfo id="straightE_68" depart="55.00" departLane="edgeE_O_2" departPos="5.36" departSpeed="0.00" departDelay="4.00" arrival="129.00" arrivalLane="edgeW_I_3" arrivalPos="392.10" arrivalSpeed="27.68" duration="74.00" routeLength="694.64" waitingTime="22.00" waitingCount="1" stopTime="0.00" timeLoss="43.63" rerouteNo="0" devices="tripinfo_straightE_68" vType="vehicleE_68" speedFactor="1.11" vaporized=""/>
    <tripinfo id="straightW_104" depart="83.00" departLane="edgeW_O_2" departPos="5.04" departSpeed="0.00" departDelay="0.00" arrival="129.00" arrivalLane="edgeE_I_2" arrivalPos="292.10" arrivalSpeed="20.75" duration="46.00" routeLength="694.96" waitingTime="0.00" waitingCount="0" stopTime="0.00" timeLoss="4.85" rerouteNo="0" devices="tripinfo_straightW_104" vType="vehicleW_104" speedFactor="0.87" vaporized=""/>
    <tripinfo id="rightE_111" depart="87.00" departLane="edgeE_O_1" departPos="4.67" departSpeed="0.00" departDelay="0.00" arrival="129.00" arrivalLane="edgeN_I_1" arrivalPos="285.70" arrivalSpeed="17.35" duration="42.00" routeLength="583.28" waitingTime="0.00" waitingCount="0" stopTime="0.00" timeLoss="7.65" rerouteNo="0" devices="tripinfo_rightE_111" vType="vehicleE_111" speedFactor="1.00" vaporized=""/>
    <tripinfo id="straightE_70" depart="58.00" departLane="edgeE_O_2" departPos="4.59" departSpeed="0.00" departDelay="6.00" arrival="131.00" arrivalLane="edgeW_I_2" arrivalPos="392.10" arrivalSpeed="30.92" duration="73.00" routeLength="695.41" waitingTime="23.00" waitingCount="1" stopTime="0.00" timeLoss="46.11" rerouteNo="0" devices="tripinfo_straightE_70" vType="vehicleE_70" speedFactor="1.26" vaporized=""/>
    <tripinfo id="straightE_73" depart="61.00" departLane="edgeE_O_2" departPos="4.99" departSpeed="0.00" departDelay="5.00" arrival="133.00" arrivalLane="edgeW_I_2" arrivalPos="392.10" arrivalSpeed="27.29" duration="72.00" routeLength="695.01" waitingTime="20.00" waitingCount="1" stopTime="0.00" timeLoss="40.34" rerouteNo="0" devices="tripinfo_straightE_73" vType="vehicleE_73" speedFactor="1.07" vaporized=""/>
    <tripinfo id="uturnE_110" depart="86.00" departLane="edgeE_O_3" departPos="5.39" departSpeed="0.00" departDelay="0.00" arrival="133.00" arrivalLane="edgeE_I_3" arrivalPos="292.10" arrivalSpeed="24.20" duration="47.00" routeLength="583.49" waitingTime="2.00" waitingCount="1" stopTime="0.00" timeLoss="15.83" rerouteNo="0" devices="tripinfo_uturnE_110" vType="vehicleE_110" speedFactor="0.98" vaporized=""/>
    <tripinfo id="rightE_116" depart="93.00" departLane="edgeE_O_1" departPos="4.08" departSpeed="0.00" departDelay="0.00" arrival="134.00" arrivalLane="edgeN_I_1" arrivalPos="285.70" arrivalSpeed="18.73" duration="41.00" routeLength="583.88" waitingTime="0.00" waitingCount="0" stopTime="0.00" timeLoss="8.42" rerouteNo="0" devices="tripinfo_rightE_116" vType="vehicleE_116" speedFactor="1.04" vaporized=""/>
    <tripinfo id="straightE_76" depart="63.00" departLane="edgeE_O_2" departPos="4.48" departSpeed="0.00" departDelay="5.00" arrival="136.00" arrivalLane="edgeW_I_2" arrivalPos="392.10" arrivalSpeed="25.41" duration="73.00" routeLength="695.52" waitingTime="18.00" waitingCount="1" stopTime="0.00" timeLoss="39.11" rerouteNo="0" devices="tripinfo_straightE_76" vType="vehicleE_76" speedFactor="1.01" vaporized=""/>
    <tripinfo id="straightE_78" depart="66.00" departLane="edgeE_O_2" departPos="4.53" departSpeed="0.00" departDelay="6.00" arrival="137.00" arrivalLane="edgeW_I_2" arrivalPos="392.10" arrivalSpeed="25.57" duration="71.00" routeLength="695.47" waitingTime="17.00" waitingCount="1" stopTime="0.00" timeLoss="38.16" rerouteNo="0" devices="tripinfo_straightE_78" vType="vehicleE_78" speedFactor="1.02" vaporized=""/>
    <tripinfo id="uturnW_69" depart="52.00" departLane="edgeW_O_3" departPos="5.28" departSpeed="0.00" departDelay="0.00" arrival="140.00" arrivalLane="edgeW_I_3" arrivalPos="392.10" arrivalSpeed="26.84" duration="88.00" routeLength="783.60" waitingTime="38.00" waitingCount="1" stopTime="0.00" timeLoss="50.36" rerouteNo="0" devices="tripinfo_uturnW_69" vType="vehicleW_69" speedFactor="1.07" vaporized=""/>
    <tripinfo id="straightN_17" depart="14.00" departLane="edgeN_O_1" departPos="5.01" departSpeed="0.00" departDelay="0.00" arrival="152.00" arrivalLane="edgeS_I_1" arrivalPos="285.70" arrivalSpeed="17.38" duration="138.00" routeLength="594.99" waitingTime="89.00" waitingCount="1" stopTime="0.00" timeLoss="97.06" rerouteNo="0" devices="tripinfo_straightN_17" vType="vehicleN_17" speedFactor="0.99" vaporized=""/>
    <tripinfo id="straightS_22" depart="18.00" departLane="edgeS_O_1" departPos="4.59" departSpeed="0.00" departDelay="0.00" arrival="153.00" arrivalLane="edgeN_I_1" arrivalPos="285.70" arrivalSpeed="16.43" duration="135.00" routeLength="595.41" waitingTime="84.00" waitingCount="1" stopTime="0.00" timeLoss="93.15" rerouteNo="0" devices="tripinfo_straightS_22" vType="vehicleS_22" speedFactor="0.97" vaporized=""/>
    <tripinfo id="straightN_19" depart="16.00" departLane="edgeN_O_1" departPos="4.41" departSpeed="0.00" departDelay="0.00" arrival="154.00" arrivalLane="edgeS_I_1" arrivalPos="285.70" arrivalSpeed="18.30" duration="138.00" routeLength="595.59" waitingTime="88.00" waitingCount="1" stopTime="0.00" timeLoss="97.45" rerouteNo="0" devices="tripinfo_straightN_19" vType="vehicleN_19" speedFactor="1.00" vaporized=""/>
    <tripinfo id="straightS_28" depart="20.00" departLane="edgeS_O_1" departPos="4.84" departSpeed="0.00" departDelay="0.00" arrival="155.00" arrivalLane="edgeN_I_1" arrivalPos="285.70" arrivalSpeed="17.70" duration="135.00" routeLength="595.16" waitingTime="82.00" waitingCount="1" stopTime="0.00" timeLoss="93.32" rerouteNo="0" devices="tripinfo_straightS_28" vType="vehicleS_28" speedFactor="0.98" vaporized=""/>
    <tripinfo id="straightS_30" depart="22.00" departLane="edgeS_O_1" departPos="5.09" departSpeed="0.00" departDelay="1.00" arrival="156.00" arrivalLane="edgeN_I_1" arrivalPos="285.70" arrivalSpeed="17.93" duration="134.00" routeLength="594.91" waitingTime="81.00" waitingCount="1" stopTime="0.00" timeLoss="94.37" rerouteNo="0" devices="tripinfo_straightS_30" vType="vehicleS_30" speedFactor="1.01" vaporized=""/>
    <tripinfo id="straightS_34" depart="25.00" departLane="edgeS_O_1" departPos="4.52" departSpeed="0.00" departDelay="1.00" arrival="158.00" arrivalLane="edgeN_I_1" arrivalPos="285.70" arrivalSpeed="18.99" duration="133.00" routeLength="595.48" waitingTime="80.00" waitingCount="1" stopTime="0.00" timeLoss="93.61" rerouteNo="0" devices="tripinfo_straightS_34" vType="vehicleS_34" speedFactor="1.03" vaporized=""/>
    <tripinfo id="straightS_37" depart="28.00" departLane="edgeS_O_1" departPos="4.49" departSpeed="0.00" departDelay="3.00" arrival="161.00" arrivalLane="edgeN_I_1" arrivalPos="285.70" arrivalSpeed="17.05" duration="133.00" routeLength="595.51" waitingTime="80.00" waitingCount="1" stopTime="0.00" timeLoss="89.55" rerouteNo="0" devices="tripinfo_straightS_37" vType="vehicleS_37" speedFactor="0.94" vaporized=""/>
    <tripinfo id="straightS_44" depart="31.00" departLane="edgeS_O_1" departPos="4.57" departSpeed="0.00" departDelay="1.00" arrival="162.00" arrivalLane="edgeN_I_1" arrivalPos="285.70" arrivalSpeed="17.81" duration="131.00" routeLength="595.43" waitingTime="79.00" waitingCount="1" stopTime="0.00" timeLoss="89.22" rerouteNo="0" devices="tripinfo_straightS_44" vType="vehicleS_44" speedFactor="0.97" vaporized=""/>
    <tripinfo id="straightS_48" depart="33.00" departLane="edgeS_O_1" departPos="4.57" departSpeed="0.00" departDelay="0.00" arrival="169.00" arrivalLane="edgeN_I_1" arrivalPos="285.70" arrivalSpeed="13.73" duration="136.00" routeLength="595.43" waitingTime="73.00" waitingCount="1" stopTime="0.00" timeLoss="84.47" rerouteNo="0" devices="tripinfo_straightS_48" vType="vehicleS_48" speedFactor="0.79" vaporized=""/>