<?xml version="1.0" encoding="UTF-8"?>

<!-- generated on 2021-11-02 19:22:58 by Eclipse SUMO sumo Version 1.10.0
<configuration xmlns:xsi="http://www.w3.org/2001/XMLSchema-instance" xsi:noNamespaceSchemaLocation="http://sumo.dlr.de/xsd/sumoConfiguration.xsd">

    <input>
        <net-file value="data/cross.net.xml"/>
        <route-files value="data/cross.rou.xml"/>
        <additional-files value="data/cross.tls.xml"/>
    </input>

    <output>
        <tripinfo-output value="data/tripinfo.xml"/>
        <tripinfo-output.write-unfinished value="true"/>
    </output>

    <time>
        <begin value="0"/>
        <step-length value="1"/>
    </time>

    <processing>
        <threads value="5"/>
        <time-to-teleport value="-1"/>
    </processing>

    <report>
        <verbose value="true"/>
        <no-warnings value="true"/>
        <no-step-log value="true"/>
    </report>

    <traci_server>
        <remote-port value="63771"/>
    </traci_server>

    <gui_only>
        <gui-settings-file value="data/viewsettings.xml"/>
        <quit-on-end value="true"/>
        <tracker-interval value="1"/>
    </gui_only>

</configuration>
-->

<tripinfos xmlns:xsi="http://www.w3.org/2001/XMLSchema-instance" xsi:noNamespaceSchemaLocation="http://sumo.dlr.de/xsd/tripinfo_file.xsd">
    <tripinfo id="straightS_0" depart="0.00" departLane="edgeS_O_2" departPos="4.35" departSpeed="0.00" departDelay="0.00" arrival="55.00" arrivalLane="edgeN_I_1" arrivalPos="988.90" arrivalSpeed="28.38" duration="55.00" routeLength="1395.64" waitingTime="0.00" waitingCount="0" stopTime="0.00" timeLoss="6.22" rerouteNo="0" devices="tripinfo_straightS_0" vType="vehicleS_0" speedFactor="1.08" vaporized=""/>
    <tripinfo id="straightS_14" depart="13.00" departLane="edgeS_O_2" departPos="3.98" departSpeed="0.00" departDelay="0.00" arrival="66.00" arrivalLane="edgeN_I_2" arrivalPos="988.90" arrivalSpeed="29.86" duration="53.00" routeLength="1396.02" waitingTime="0.00" waitingCount="0" stopTime="0.00" timeLoss="6.69" rerouteNo="0" devices="tripinfo_straightS_14" vType="vehicleS_14" speedFactor="1.15" vaporized=""/>
    <tripinfo id="uturnW_3" depart="1.00" departLane="edgeW_O_2" departPos="4.56" departSpeed="0.00" departDelay="0.00" arrival="69.00" arrivalLane="edgeW_I_2" arrivalPos="288.90" arrivalSpeed="18.56" duration="68.00" routeLength="577.92" waitingTime="17.00" waitingCount="1" stopTime="0.00" timeLoss="27.65" rerouteNo="0" devices="tripinfo_uturnW_3" vType="vehicleW_3" speedFactor="0.97" vaporized=""/>
    <tripinfo id="straightS_16" depart="16.00" departLane="edgeS_O_2" departPos="5.69" departSpeed="0.00" departDelay="2.00" arrival="78.00" arrivalLane="edgeN_I_1" arrivalPos="988.90" arrivalSpeed="25.46" duration="62.00" routeLength="1394.31" waitingTime="0.00" waitingCount="0" stopTime="0.00" timeLoss="7.99" rerouteNo="0" devices="tripinfo_straightS_16" vType="vehicleS_16" speedFactor="0.97" vaporized=""/>
    <tripinfo id="uturnW_9" depart="12.00" departLane="edgeW_O_2" departPos="4.88" departSpeed="0.00" departDelay="3.00" arrival="80.00" arrivalLane="edgeW_I_1" arrivalPos="288.90" arrivalSpeed="15.76" duration="68.00" routeLength="577.60" waitingTime="6.00" waitingCount="1" stopTime="0.00" timeLoss="20.02" rerouteNo="0" devices="tripinfo_uturnW_9" vType="vehicleW_9" speedFactor="0.80" vaporized=""/>
    <tripinfo id="straightE_1" depart="0.00" departLane="edgeE_O_2" departPos="4.37" departSpeed="0.00" departDelay="0.00" arrival="81.00" arrivalLane="edgeW_I_2" arrivalPos="288.90" arrivalSpeed="21.23" duration="81.00" routeLength="1095.63" waitingTime="0.00" waitingCount="0" stopTime="0.00" timeLoss="7.06" rerouteNo="0" devices="tripinfo_straightE_1" vType="vehicleE_1" speedFactor="1.07" vaporized=""/>
    <tripinfo id="straightW_6" depart="6.00" departLane="edgeW_O_2" departPos="4.24" departSpeed="0.00" departDelay="0.00" arrival="92.00" arrivalLane="edgeE_I_1" arrivalPos="788.90" arrivalSpeed="21.58" duration="86.00" routeLength="1095.75" waitingTime="15.00" waitingCount="1" stopTime="0.00" timeLoss="27.26" rerouteNo="0" devices="tripinfo_straightW_6" vType="vehicleW_6" speedFactor="1.08" vaporized=""/>
    <tripinfo id="leftW_7" depart="8.00" departLane="edgeW_O_2" departPos="4.52" departSpeed="0.00" departDelay="1.00" arrival="95.00" arrivalLane="edgeN_I_1" arrivalPos="988.90" arrivalSpeed="28.32" duration="87.00" routeLength="1293.76" waitingTime="15.00" waitingCount="2" stopTime="0.00" timeLoss="30.00" rerouteNo="0" devices="tripinfo_leftW_7" vType="vehicleW_7" speedFactor="1.09" vaporized=""/>
    <tripinfo id="straightN_2" depart="1.00" departLane="edgeN_O_2" departPos="5.43" departSpeed="0.00" departDelay="0.00" arrival="101.00" arrivalLane="edgeS_I_2" arrivalPos="388.90" arrivalSpeed="26.66" duration="100.00" routeLength="1394.57" waitingTime="29.00" waitingCount="1" stopTime="0.00" timeLoss="46.56" rerouteNo="0" devices="tripinfo_straightN_2" vType="vehicleN_2" speedFactor="1.00" vaporized=""/>
    <tripinfo id="straightN_4" depart="5.00" departLane="edgeN_O_2" departPos="4.48" departSpeed="0.00" departDelay="0.00" arrival="104.00" arrivalLane="edgeS_I_2" arrivalPos="388.90" arrivalSpeed="23.53" duration="99.00" routeLength="1395.52" waitingTime="22.00" waitingCount="1" stopTime="0.00" timeLoss="39.48" rerouteNo="0" devices="tripinfo_straightN_4" vType="vehicleN_4" speedFactor="0.90" vaporized=""/>
    <tripinfo id="leftW_12" depart="18.00" departLane="edgeW_O_2" departPos="5.27" departSpeed="0.00" departDelay="7.00" arrival="105.00" arrivalLane="edgeN_I_1" arrivalPos="988.90" arrivalSpeed="29.93" duration="87.00" routeLength="1293.01" waitingTime="4.00" waitingCount="2" stopTime="0.00" timeLoss="33.69" rerouteNo="0" devices="tripinfo_leftW_12" vType="vehicleW_12" speedFactor="1.16" vaporized=""/>
    <tripinfo id="straightN_5" depart="8.00" departLane="edgeN_O_2" departPos="5.18" departSpeed="0.00" departDelay="2.00" arrival="106.00" arrivalLane="edgeS_I_2" arrivalPos="388.90" arrivalSpeed="21.89" duration="98.00" routeLength="1394.82" waitingTime="19.00" waitingCount="1" stopTime="0.00" timeLoss="35.18" rerouteNo="0" devices="tripinfo_straightN_5" vType="vehicleN_5" speedFactor="0.85" vaporized=""/>
    <tripinfo id="straightW_11" depart="15.00" departLane="edgeW_O_2" departPos="5.68" departSpeed="0.00" departDelay="5.00" arrival="108.00" arrivalLane="edgeE_I_1" arrivalPos="788.90" arrivalSpeed="16.76" duration="93.00" routeLength="1094.32" waitingTime="4.00" waitingCount="1" stopTime="0.00" timeLoss="23.15" rerouteNo="0" devices="tripinfo_straightW_11" vType="vehicleW_11" speedFactor="0.92" vaporized=""/>
    <tripinfo id="straightN_13" depart="12.00" departLane="edgeN_O_2" departPos="5.49" departSpeed="0.00" departDelay="0.00" arrival="108.00" arrivalLane="edgeS_I_2" arrivalPos="388.90" arrivalSpeed="25.19" duration="96.00" routeLength="1394.51" waitingTime="17.00" waitingCount="1" stopTime="0.00" timeLoss="41.87" rerouteNo="0" devices="tripinfo_straightN_13" vType="vehicleN_13" speedFactor="0.98" vaporized=""/>
    <tripinfo id="straightW_15" depart="21.00" departLane="edgeW_O_2" departPos="4.99" departSpeed="0.00" departDelay="8.00" arrival="109.00" arrivalLane="edgeE_I_2" arrivalPos="788.90" arrivalSpeed="23.15" duration="88.00" routeLength="1095.01" waitingTime="2.00" waitingCount="1" stopTime="0.00" timeLoss="33.49" rerouteNo="0" devices="tripinfo_straightW_15" vType="vehicleW_15" speedFactor="1.18" vaporized=""/>
    <tripinfo id="straightN_19" depart="20.00" departLane="edgeN_O_2" departPos="4.60" departSpeed="0.00" departDelay="0.00" arrival="111.00" arrivalLane="edgeS_I_2" arrivalPos="388.90" arrivalSpeed="27.70" duration="91.00" routeLength="1395.40" waitingTime="14.00" waitingCount="1" stopTime="0.00" timeLoss="39.95" rerouteNo="0" devices="tripinfo_straightN_19" vType="vehicleN_19" speedFactor="1.05" vaporized=""/>
    <tripinfo id="leftS_27" depart="26.00" departLane="edgeS_O_2" departPos="5.53" departSpeed="0.00" departDelay="3.00" arrival="111.00" arrivalLane="edgeW_I_1" arrivalPos="288.90" arrivalSpeed="17.35" duration="85.00" routeLength="695.39" waitingTime="31.00" waitingCount="2" stopTime="0.00" timeLoss="48.92" rerouteNo="0" devices="tripinfo_leftS_27" vType="vehicleS_27" speedFactor="0.88" vaporized=""/>
    <tripinfo id="straightN_23" depart="22.00" departLane="edgeN_O_2" departPos="4.34" departSpeed="0.00" departDelay="0.00" arrival="116.00" arrivalLane="edgeS_I_2" arrivalPos="388.90" arrivalSpeed="21.62" duration="94.00" routeLength="1395.66" waitingTime="7.00" waitingCount="1" stopTime="0.00" timeLoss="29.05" rerouteNo="0" devices="tripinfo_straightN_23" vType="vehicleN_23" speedFactor="0.82" vaporized=""/>
    <tripinfo id="straightN_29" depart="26.00" departLane="edgeN_O_2" departPos="4.38" departSpeed="0.00" departDelay="2.00" arrival="117.00" arrivalLane="edgeS_I_2" arrivalPos="388.90" arrivalSpeed="23.86" duration="91.00" routeLength="1395.62" waitingTime="5.00" waitingCount="1" stopTime="0.00" timeLoss="45.36" rerouteNo="0" devices="tripinfo_straightN_29" vType="vehicleN_29" speedFactor="1.16" vaporized=""/>
    <tripinfo id="straightN_30" depart="29.00" departLane="edgeN_O_2" departPos="4.98" departSpeed="0.00" departDelay="4.00" arrival="119.00" arrivalLane="edgeS_I_2" arrivalPos="388.90" arrivalSpeed="24.46" duration="90.00" routeLength="1395.02" waitingTime="4.00" waitingCount="1" stopTime="0.00" timeLoss="42.25" rerouteNo="0" devices="tripinfo_straightN_30" vType="vehicleN_30" speedFactor="1.12" vaporized=""/>
    <tripinfo id="straightN_33" depart="32.00" departLane="edgeN_O_2" departPos="5.31" departSpeed="0.00" departDelay="5.00" arrival="121.00" arrivalLane="edgeS_I_2" arrivalPos="388.90" arrivalSpeed="23.58" duration="89.00" routeLength="1394.69" waitingTime="4.00" waitingCount="1" stopTime="0.00" timeLoss="29.26" rerouteNo="0" devices="tripinfo_straightN_33" vType="vehicleN_33" speedFactor="0.90" vaporized=""/>
    <tripinfo id="straightS_21" depart="21.00" departLane="edgeS_O_2" departPos="4.80" departSpeed="0.00" departDelay="0.00" arrival="123.00" arrivalLane="edgeN_I_2" arrivalPos="988.90" arrivalSpeed="28.84" duration="102.00" routeLength="1395.20" waitingTime="31.00" waitingCount="1" stopTime="0.00" timeLoss="54.64" rerouteNo="0" devices="tripinfo_straightS_21" vType="vehicleS_21" speedFactor="1.13" vaporized=""/>
    <tripinfo id="straightN_36" depart="35.00" departLane="edgeN_O_2" departPos="5.24" departSpeed="0.00" departDelay="7.00" arrival="123.00" arrivalLane="edgeS_I_2" arrivalPos="388.90" arrivalSpeed="25.61" duration="88.00" routeLength="1394.76" waitingTime="4.00" waitingCount="1" stopTime="0.00" timeLoss="35.03" rerouteNo="0" devices="tripinfo_straightN_36" vType="vehicleN_36" speedFactor="1.02" vaporized=""/>
    <tripinfo id="straightN_37" depart="37.00" departLane="edgeN_O_2" departPos="4.51" departSpeed="0.00" departDelay="8.00" arrival="124.00" arrivalLane="edgeS_I_2" arrivalPos="388.90" arrivalSpeed="23.24" duration="87.00" routeLength="1395.49" waitingTime="4.00" waitingCount="1" stopTime="0.00" timeLoss="29.23" rerouteNo="0" devices="tripinfo_straightN_37" vType="vehicleN_37" speedFactor="0.92" vaporized=""/>
    <tripinfo id="straightS_18" depart="19.00" departLane="edgeS_O_2" departPos="4.37" departSpeed="0.00" departDelay="2.00" arrival="125.00" arrivalLane="edgeN_I_1" arrivalPos="988.90" arrivalSpeed="23.19" duration="106.00" routeLength="1395.63" waitingTime="36.00" waitingCount="1" stopTime="0.00" timeLoss="48.05" rerouteNo="0" devices="tripinfo_straightS_18" vType="vehicleS_18" speedFactor="0.92" vaporized=""/>
    <tripinfo id="straightN_46" depart="40.00" departLane="edgeN_O_2" departPos="4.64" departSpeed="0.00" departDelay="1.00" arrival="126.00" arrivalLane="edgeS_I_2" arrivalPos="388.90" arrivalSpeed="27.26" duration="86.00" routeLength="1395.36" waitingTime="3.00" waitingCount="1" stopTime="0.00" timeLoss="35.22" rerouteNo="0" devices="tripinfo_straightN_46" vType="vehicleN_46" speedFactor="1.05" vaporized=""/>
    <tripinfo id="straightN_47" depart="42.00" departLane="edgeN_O_2" departPos="5.06" departSpeed="0.00" departDelay="2.00" arrival="128.00" arrivalLane="edgeS_I_2" arrivalPos="388.90" arrivalSpeed="26.86" duration="86.00" routeLength="1394.94" waitingTime="2.00" waitingCount="1" stopTime="0.00" timeLoss="36.74" rerouteNo="0" devices="tripinfo_straightN_47" vType="vehicleN_47" speedFactor="1.09" vaporized=""/>
    <tripinfo id="straightN_50" depart="45.00" departLane="edgeN_O_2" departPos="5.59" departSpeed="0.00" departDelay="1.00" arrival="130.00" arrivalLane="edgeS_I_2" arrivalPos="388.90" arrivalSpeed="21.84" duration="85.00" routeLength="1394.41" waitingTime="0.00" waitingCount="0" stopTime="0.00" timeLoss="20.02" rerouteNo="0" devices="tripinfo_straightN_50" vType="vehicleN_50" speedFactor="0.82" vaporized=""/>
    <tripinfo id="straightS_24" depart="24.00" departLane="edgeS_O_2" departPos="5.65" departSpeed="0.00" departDelay="2.00" arrival="132.00" arrivalLane="edgeN_I_1" arrivalPos="988.90" arrivalSpeed="22.01" duration="108.00" routeLength="1394.35" waitingTime="31.00" waitingCount="1" stopTime="0.00" timeLoss="45.91" rerouteNo="0" devices="tripinfo_straightS_24" vType="vehicleS_24" speedFactor="0.85" vaporized=""/>
    <tripinfo id="straightN_53" depart="49.00" departLane="edgeN_O_2" departPos="4.44" departSpeed="0.00" departDelay="0.00" arrival="132.00" arrivalLane="edgeS_I_2" arrivalPos="388.90" arrivalSpeed="20.94" duration="83.00" routeLength="1395.56" waitingTime="0.00" waitingCount="0" stopTime="0.00" timeLoss="18.64" rerouteNo="0" devices="tripinfo_straightN_53" vType="vehicleN_53" speedFactor="0.83" vaporized=""/>
    <tripinfo id="straightN_55" depart="52.00" departLane="edgeN_O_2" departPos="5.61" departSpeed="0.00" departDelay="2.00" arrival="133.00" arrivalLane="edgeS_I_2" arrivalPos="388.90" arrivalSpeed="23.69" duration="81.00" routeLength="1394.39" waitingTime="0.00" waitingCount="0" stopTime="0.00" timeLoss="27.55" rerouteNo="0" devices="tripinfo_straightN_55" vType="vehicleN_55" speedFactor="0.99" vaporized=""/>
    <tripinfo id="straightN_56" depart="54.00" departLane="edgeN_O_2" departPos="4.66" departSpeed="0.00" departDelay="1.00" arrival="135.00" arrivalLane="edgeS_I_2" arrivalPos="388.90" arrivalSpeed="26.35" duration="81.00" routeLength="1395.34" waitingTime="0.00" waitingCount="0" stopTime="0.00" timeLoss="30.06" rerouteNo="0" devices="tripinfo_straightN_56" vType="vehicleN_56" speedFactor="1.05" vaporized=""/>
    <tripinfo id="straightN_57" depart="57.00" departLane="edgeN_O_2" departPos="5.54" departSpeed="0.00" departDelay="2.00" arrival="137.00" arrivalLane="edgeS_I_2" arrivalPos="388.90" arrivalSpeed="24.16" duration="80.00" routeLength="1394.46" waitingTime="0.00" waitingCount="0" stopTime="0.00" timeLoss="21.39" rerouteNo="0" devices="tripinfo_straightN_57" vType="vehicleN_57" speedFactor="0.91" vaporized=""/>
    <tripinfo id="leftN_17" depart="17.00" departLane="edgeN_O_2" departPos="3.98" departSpeed="0.00" departDelay="0.00" arrival="139.00" arrivalLane="edgeE_I_1" arrivalPos="788.90" arrivalSpeed="16.83" duration="122.00" routeLength="1796.94" waitingTime="15.00" waitingCount="1" stopTime="0.00" timeLoss="33.63" rerouteNo="0" devices="tripinfo_leftN_17" vType="vehicleN_17" speedFactor="0.90" vaporized=""/>
    <tripinfo id="straightS_31" depart="29.00" departLane="edgeS_O_2" departPos="4.07" departSpeed="0.00" departDelay="4.00" arrival="141.00" arrivalLane="edgeN_I_1" arrivalPos="988.90" arrivalSpeed="22.23" duration="112.00" routeLength="1395.93" waitingTime="29.00" waitingCount="2" stopTime="0.00" timeLoss="50.57" rerouteNo="0" devices="tripinfo_straightS_31" vType="vehicleS_31" speedFactor="0.86" vaporized=""/>
    <tripinfo id="straightE_8" depart="8.00" departLane="edgeE_O_2" departPos="5.31" departSpeed="0.00" departDelay="0.00" arrival="147.00" arrivalLane="edgeW_I_2" arrivalPos="288.90" arrivalSpeed="20.32" duration="139.00" routeLength="1094.68" waitingTime="52.00" waitingCount="1" stopTime="0.00" timeLoss="64.06" rerouteNo="0" devices="tripinfo_straightE_8" vType="vehicleE_8" speedFactor="1.05" vaporized=""/>
    <tripinfo id="straightE_10" depart="11.00" departLane="edgeE_O_2" departPos="5.40" departSpeed="0.00" departDelay="2.00" arrival="150.00" arrivalLane="edgeW_I_2" arrivalPos="288.90" arrivalSpeed="19.90" duration="139.00" routeLength="1094.60" waitingTime="48.00" waitingCount="1" stopTime="0.00" timeLoss="60.72" rerouteNo="0" devices="tripinfo_straightE_10" vType="vehicleE_10" speedFactor="1.01" vaporized=""/>
    <tripinfo id="straightE_20" depart="20.00" departLane="edgeE_O_2" departPos="4.57" departSpeed="0.00" departDelay="0.00" arrival="151.00" arrivalLane="edgeW_I_2" arrivalPos="288.90" arrivalSpeed="22.56" duration="131.00" routeLength="1095.43" waitingTime="47.00" waitingCount="1" stopTime="0.00" timeLoss="62.02" rerouteNo="0" devices="tripinfo_straightE_20" vType="vehicleE_20" speedFactor="1.14" vaporized=""/>
    <tripinfo id="straightE_35" depart="29.00" departLane="edgeE_O_2" departPos="4.45" departSpeed="0.00" departDelay="2.00" arrival="153.00" arrivalLane="edgeW_I_2" arrivalPos="288.90" arrivalSpeed="22.71" duration="124.00" routeLength="1095.55" waitingTime="34.00" waitingCount="1" stopTime="0.00" timeLoss="55.74" rerouteNo="0" devices="tripinfo_straightE_35" vType="vehicleE_35" speedFactor="1.16" vaporized=""/>
    <tripinfo id="straightE_26" depart="22.00" departLane="edgeE_O_2" departPos="4.87" departSpeed="0.00" departDelay="0.00" arrival="158.00" arrivalLane="edgeW_I_2" arrivalPos="288.90" arrivalSpeed="16.31" duration="136.00" routeLength="1095.13" waitingTime="30.00" waitingCount="1" stopTime="0.00" timeLoss="46.23" rerouteNo="0" devices="tripinfo_straightE_26" vType="vehicleE_26" speedFactor="0.88" vaporized=""/>
    <tripinfo id="straightE_28" depart="24.00" departLane="edgeE_O_2" departPos="5.15" departSpeed="0.00" departDelay="1.00" arrival="159.00" arrivalLane="edgeW_I_2" arrivalPos="288.90" arrivalSpeed="17.08" duration="135.00" routeLength="1094.85" waitingTime="29.00" waitingCount="1" stopTime="0.00" timeLoss="48.07" rerouteNo="0" devices="tripinfo_straightE_28" vType="vehicleE_28" speedFactor="0.90" vaporized=""/>
    <tripinfo id="straightE_40" depart="32.00" departLane="edgeE_O_2" departPos="5.52" departSpeed="0.00" departDelay="0.00" arrival="161.00" arrivalLane="edgeW_I_2" arrivalPos="288.90" arrivalSpeed="18.17" duration="129.00" routeLength="1094.48" waitingTime="29.00" waitingCount="1" stopTime="0.00" timeLoss="47.61" rerouteNo="0" devices="tripinfo_straightE_40" vType="vehicleE_40" speedFactor="0.96" vaporized=""/>
    <tripinfo id="straightE_41" depart="35.00" departLane="edgeE_O_2" departPos="4.59" departSpeed="0.00" departDelay="1.00" arrival="163.00" arrivalLane="edgeW_I_2" arrivalPos="288.90" arrivalSpeed="19.75" duration="128.00" routeLength="1095.41" waitingTime="27.00" waitingCount="1" stopTime="0.00" timeLoss="50.04" rerouteNo="0" devices="tripinfo_straightE_41" vType="vehicleE_41" speedFactor="1.01" vaporized=""/>
    <tripinfo id="straightE_32" depart="27.00" departLane="edgeE_O_2" departPos="4.49" departSpeed="0.00" departDelay="1.00" arrival="167.00" arrivalLane="edgeW_I_2" arrivalPos="288.90" arrivalSpeed="16.21" duration="140.00" routeLength="1095.51" waitingTime="26.00" waitingCount="1" stopTime="0.00" timeLoss="43.60" rerouteNo="0" devices="tripinfo_straightE_32" vType="vehicleE_32" speedFactor="0.82" vaporized=""/>
    <tripinfo id="leftN_58" depart="60.00" departLane="edgeN_O_2" departPos="4.94" departSpeed="0.00" departDelay="3.00" arrival="167.00" arrivalLane="edgeE_I_1" arrivalPos="788.90" arrivalSpeed="18.05" duration="107.00" routeLength="1795.98" waitingTime="0.00" waitingCount="0" stopTime="0.00" timeLoss="24.02" rerouteNo="0" devices="tripinfo_leftN_58" vType="vehicleN_58" speedFactor="0.96" vaporized=""/>
    <tripinfo id="uturnW_22" depart="24.00" departLane="edgeW_O_2" departPos="5.48" departSpeed="0.00" departDelay="3.00" arrival="169.00" arrivalLane="edgeW_I_2" arrivalPos="288.90" arrivalSpeed="16.06" duration="145.00" routeLength="577.00" waitingTime="74.00" waitingCount="3" stopTime="0.00" timeLoss="101.36" rerouteNo="0" devices="tripinfo_uturnW_22" vType="vehicleW_22" speedFactor="0.88" vaporized=""/>
    <tripinfo id="straightN_60" depart="66.00" departLane="edgeN_O_2" departPos="5.06" departSpeed="0.00" departDelay="7.00" arrival="183.00" arrivalLane="edgeS_I_2" arrivalPos="388.90" arrivalSpeed="20.91" duration="117.00" routeLength="1394.94" waitingTime="35.00" waitingCount="1" stopTime="0.00" timeLoss="49.56" rerouteNo="0" devices="tripinfo_straightN_60" vType="vehicleN_60" speedFactor="0.80" vaporized=""/>
    <tripinfo id="straightN_62" depart="68.00" departLane="edgeN_O_2" departPos="5.47" departSpeed="0.00" departDelay="8.00" arrival="184.00" arrivalLane="edgeS_I_2" arrivalPos="388.90" arrivalSpeed="23.34" duration="116.00" routeLength="1394.53" waitingTime="35.00" waitingCount="1" stopTime="0.00" timeLoss="67.37" rerouteNo="0" devices="tripinfo_straightN_62" vType="vehicleN_62" speedFactor="1.10" vaporized=""/>
    <tripinfo id="straightN_66" depart="72.00" departLane="edgeN_O_2" departPos="5.04" departSpeed="0.00" departDelay="5.00" arrival="186.00" arrivalLane="edgeS_I_2" arrivalPos="388.90" arrivalSpeed="23.02" duration="114.00" routeLength="1394.96" waitingTime="34.00" waitingCount="1" stopTime="0.00" timeLoss="56.22" rerouteNo="0" devices="tripinfo_straightN_66" vType="vehicleN_66" speedFactor="0.93" vaporized=""/>
    <tripinfo id="straightN_69" depart="74.00" departLane="edgeN_O_2" departPos="4.16" departSpeed="0.00" departDelay="4.00" arrival="187.00" arrivalLane="edgeS_I_2" arrivalPos="388.90" arrivalSpeed="24.00" duration="113.00" routeLength="1395.84" waitingTime="33.00" waitingCount="1" stopTime="0.00" timeLoss="56.87" rerouteNo="0" devices="tripinfo_straightN_69" vType="vehicleN_69" speedFactor="0.95" vaporized=""/>
    <tripinfo id="straightN_74" depart="78.00" departLane="edgeN_O_2" departPos="5.16" departSpeed="0.00" departDelay="0.00" arrival="189.00" arrivalLane="edgeS_I_2" arrivalPos="388.90" arrivalSpeed="26.64" duration="111.00" routeLength="1394.84" waitingTime="33.00" waitingCount="1" stopTime="0.00" timeLoss="64.12" rerouteNo="0" devices="tripinfo_straightN_74" vType="vehicleN_74" speedFactor="1.13" vaporized=""/>
    <tripinfo id="straightN_76" depart="82.00" departLane="edgeN_O_2" departPos="4.51" departSpeed="0.00" departDelay="0.00" arrival="191.00" arrivalLane="edgeS_I_2" arrivalPos="388.90" arrivalSpeed="26.26" duration="109.00" routeLength="1395.49" waitingTime="32.00" waitingCount="1" stopTime="0.00" timeLoss="56.05" rerouteNo="0" devices="tripinfo_straightN_76" vType="vehicleN_76" speedFactor="1.01" vaporized=""/>
    <tripinfo id="straightN_77" depart="85.00" departLane="edgeN_O_2" departPos="5.18" departSpeed="0.00" departDelay="0.00" arrival="192.00" arrivalLane="edgeS_I_2" arrivalPos="388.90" arrivalSpeed="24.82" duration="107.00" routeLength="1394.82" waitingTime="31.00" waitingCount="1" stopTime="0.00" timeLoss="50.17" rerouteNo="0" devices="tripinfo_straightN_77" vType="vehicleN_77" speedFactor="0.93" vaporized=""/>
    <tripinfo id="straightN_78" depart="88.00" departLane="edgeN_O_2" departPos="4.81" departSpeed="0.00" departDelay="2.00" arrival="194.00" arrivalLane="edgeS_I_2" arrivalPos="388.90" arrivalSpeed="24.87" duration="106.00" routeLength="1395.19" waitingTime="29.00" waitingCount="1" stopTime="0.00" timeLoss="49.83" rerouteNo="0" devices="tripinfo_straightN_78" vType="vehicleN_78" speedFactor="0.95" vaporized=""/>
    <tripinfo id="straightN_79" depart="90.00" departLane="edgeN_O_2" departPos="4.70" departSpeed="0.00" departDelay="2.00" arrival="195.00" arrivalLane="edgeS_I_2" arrivalPos="388.90" arrivalSpeed="25.10" duration="105.00" routeLength="1395.30" waitingTime="28.00" waitingCount="1" stopTime="0.00" timeLoss="51.06" rerouteNo="0" devices="tripinfo_straightN_79" vType="vehicleN_79" speedFactor="0.98" vaporized=""/>
    <tripinfo id="straightN_83" depart="97.00" departLane="edgeN_O_2" departPos="4.71" departSpeed="0.00" departDelay="0.00" arrival="197.00" arrivalLane="edgeS_I_2" arrivalPos="388.90" arrivalSpeed="27.99" duration="100.00" routeLength="1395.29" waitingTime="29.00" waitingCount="1" stopTime="0.00" timeLoss="50.01" rerouteNo="0" devices="tripinfo_straightN_83" vType="vehicleN_83" speedFactor="1.07" vaporized=""/>
    <tripinfo id="uturnE_44" depart="38.00" departLane="edgeE_O_2" departPos="4.93" departSpeed="0.00" departDelay="2.00" arrival="198.00" arrivalLane="edgeE_I_1" arrivalPos="788.90" arrivalSpeed="17.50" duration="160.00" routeLength="1577.55" waitingTime="26.00" waitingCount="1" stopTime="0.00" timeLoss="45.52" rerouteNo="0" devices="tripinfo_uturnE_44" vType="vehicleE_44" speedFactor="0.90" vaporized=""/>
    <tripinfo id="straightN_88" depart="102.00" departLane="edgeN_O_2" departPos="4.43" departSpeed="0.00" departDelay="0.00" arrival="199.00" arrivalLane="edgeS_I_2" arrivalPos="388.90" arrivalSpeed="22.43" duration="97.00" routeLength="1395.57" waitingTime="18.00" waitingCount="1" stopTime="0.00" timeLoss="37.54" rerouteNo="0" devices="tripinfo_straightN_88" vType="vehicleN_88" speedFactor="0.90" vaporized=""/>
    <tripinfo id="straightN_91" depart="105.00" departLane="edgeN_O_2" departPos="4.48" departSpeed="0.00" departDelay="0.00" arrival="201.00" arrivalLane="edgeS_I_2" arrivalPos="388.90" arrivalSpeed="23.13" duration="96.00" routeLength="1395.52" waitingTime="17.00" waitingCount="1" stopTime="0.00" timeLoss="34.96" rerouteNo="0" devices="tripinfo_straightN_91" vType="vehicleN_91" speedFactor="0.87" vaporized=""/>
    <tripinfo id="straightN_92" depart="108.00" departLane="edgeN_O_2" departPos="5.08" departSpeed="0.00" departDelay="2.00" arrival="202.00" arrivalLane="edgeS_I_2" arrivalPos="388.90" arrivalSpeed="24.62" duration="94.00" routeLength="1394.91" waitingTime="15.00" waitingCount="1" stopTime="0.00" timeLoss="39.52" rerouteNo="0" devices="tripinfo_straightN_92" vType="vehicleN_92" speedFactor="0.97" vaporized=""/>
    <tripinfo id="straightN_104" depart="129.00" departLane="edgeN_O_2" departPos="5.40" departSpeed="0.00" departDelay="0.00" arrival="205.00" arrivalLane="edgeS_I_2" arrivalPos="388.90" arrivalSpeed="29.26" duration="76.00" routeLength="1394.60" waitingTime="2.00" waitingCount="1" stopTime="0.00" timeLoss="32.49" rerouteNo="0" devices="tripinfo_straightN_104" vType="vehicleN_104" speedFactor="1.24" vaporized=""/>
    <tripinfo id="straightN_105" depart="131.00" departLane="edgeN_O_2" departPos="4.19" departSpeed="0.00" departDelay="1.00" arrival="206.00" arrivalLane="edgeS_I_2" arrivalPos="388.90" arrivalSpeed="24.31" duration="75.00" routeLength="1395.81" waitingTime="1.00" waitingCount="1" stopTime="0.00" timeLoss="18.76" rerouteNo="0" devices="tripinfo_straightN_105" vType="vehicleN_105" speedFactor="0.95" vaporized=""/>
    <tripinfo id="straightN_108" depart="134.00" departLane="edgeN_O_2" departPos="4.68" departSpeed="0.00" departDelay="2.00" arrival="208.00" arrivalLane="edgeS_I_2" arrivalPos="388.90" arrivalSpeed="22.35" duration="74.00" routeLength="1395.32" waitingTime="0.00" waitingCount="0" stopTime="0.00" timeLoss="11.71" rerouteNo="0" devices="tripinfo_straightN_108" vType="vehicleN_108" speedFactor="0.85" vaporized=""/>
    <tripinfo id="rightN_112" depart="135.00" departLane="edgeN_O_1" departPos="5.21" departSpeed="0.00" departDelay="0.00" arrival="208.00" arrivalLane="edgeW_I_1" arrivalPos="288.90" arrivalSpeed="25.83" duration="73.00" routeLength="1282.75" waitingTime="0.00" waitingCount="0" stopTime="0.00" timeLoss="33.29" rerouteNo="0" devices="tripinfo_rightN_112" vType="vehicleN_112" speedFactor="1.35" vaporized=""/>
    <tripinfo id="straightN_110" depart="137.00" departLane="edgeN_O_2" departPos="5.56" departSpeed="0.00" departDelay="3.00" arrival="210.00" arrivalLane="edgeS_I_2" arrivalPos="388.90" arrivalSpeed="24.58" duration="73.00" routeLength="1394.44" waitingTime="0.00" waitingCount="0" stopTime="0.00" timeLoss="18.05" rerouteNo="0" devices="tripinfo_straightN_110" vType="vehicleN_110" speedFactor="0.98" vaporized=""/>
    <tripinfo id="straightN_114" depart="140.00" departLane="edgeN_O_2" departPos="4.52" departSpeed="0.00" departDelay="3.00" arrival="211.00" arrivalLane="edgeS_I_2" arrivalPos="388.90" arrivalSpeed="26.04" duration="71.00" routeLength="1395.48" waitingTime="0.00" waitingCount="0" stopTime="0.00" timeLoss="23.07" rerouteNo="0" devices="tripinfo_straightN_114" vType="vehicleN_114" speedFactor="1.10" vaporized=""/>
    <tripinfo id="straightN_117" depart="143.00" departLane="edgeN_O_2" departPos="5.15" departSpeed="0.00" departDelay="3.00" arrival="213.00" arrivalLane="edgeS_I_2" arrivalPos="388.90" arrivalSpeed="26.23" duration="70.00" routeLength="1394.85" waitingTime="0.00" waitingCount="0" stopTime="0.00" timeLoss="16.61" rerouteNo="0" devices="tripinfo_straightN_117" vType="vehicleN_117" speedFactor="1.00" vaporized=""/>
    <tripinfo id="straightN_125" depart="146.00" departLane="edgeN_O_2" departPos="4.39" departSpeed="0.00" departDelay="0.00" arrival="214.00" arrivalLane="edgeS_I_2" arrivalPos="388.90" arrivalSpeed="27.41" duration="68.00" routeLength="1395.61" waitingTime="0.00" waitingCount="0" stopTime="0.00" timeLoss="20.76" rerouteNo="0" devices="tripinfo_straightN_125" vType="vehicleN_125" speedFactor="1.12" vaporized=""/>
    <tripinfo id="straightE_51" depart="45.00" departLane="edgeE_O_2" departPos="4.80" departSpeed="0.00" departDelay="0.00" arrival="228.00" arrivalLane="edgeW_I_2" arrivalPos="288.90" arrivalSpeed="17.94" duration="183.00" routeLength="1095.20" waitingTime="76.00" waitingCount="2" stopTime="0.00" timeLoss="99.22" rerouteNo="0" devices="tripinfo_straightE_51" vType="vehicleE_51" speedFactor="0.94" vaporized=""/>