<?xml version="1.0" encoding="UTF-8"?>

<!-- generated on 2021-10-22 21:59:05 by Eclipse SUMO GUI Version 1.10.0
<configuration xmlns:xsi="http://www.w3.org/2001/XMLSchema-instance" xsi:noNamespaceSchemaLocation="http://sumo.dlr.de/xsd/sumoConfiguration.xsd">

    <input>
        <net-file value="data/cross.net.xml"/>
        <route-files value="data/cross.rou.xml"/>
        <additional-files value="data/cross.tls.xml"/>
    </input>

    <output>
        <tripinfo-output value="data/tripinfo.xml"/>
        <tripinfo-output.write-unfinished value="true"/>
        <statistic-output value="statistics.xml"/>
    </output>

    <time>
        <begin value="0"/>
        <step-length value="1"/>
    </time>

    <processing>
        <threads value="5"/>
        <time-to-teleport value="-1"/>
    </processing>

    <report>
        <verbose value="true"/>
        <no-step-log value="true"/>
    </report>

    <traci_server>
        <remote-port value="56685"/>
    </traci_server>

    <gui_only>
        <gui-settings-file value="data/viewsettings.xml"/>
        <tracker-interval value="1"/>
    </gui_only>

</configuration>
-->

<tripinfos xmlns:xsi="http://www.w3.org/2001/XMLSchema-instance" xsi:noNamespaceSchemaLocation="http://sumo.dlr.de/xsd/tripinfo_file.xsd">
    <tripinfo id="straightS_0" depart="0.00" departLane="edgeS_O_3" departPos="5.10" departSpeed="0.00" departDelay="0.00" arrival="77.00" arrivalLane="edgeN_I_1" arrivalPos="431.30" arrivalSpeed="13.46" duration="77.00" routeLength="994.90" waitingTime="0.00" waitingCount="0" stopTime="0.00" timeLoss="20.27" rerouteNo="0" devices="tripinfo_straightS_0" vType="vehicleS_0" speedFactor="1.26" vaporized=""/>
    <tripinfo id="rightN_6" depart="7.00" departLane="edgeN_O_1" departPos="5.10" departSpeed="0.00" departDelay="0.00" arrival="85.00" arrivalLane="edgeW_I_1" arrivalPos="431.30" arrivalSpeed="12.06" duration="78.00" routeLength="867.66" waitingTime="0.00" waitingCount="0" stopTime="0.00" timeLoss="21.29" rerouteNo="0" devices="tripinfo_rightN_6" vType="vehicleN_6" speedFactor="1.12" vaporized=""/>
    <tripinfo id="straightS_7" depart="8.00" departLane="edgeS_O_3" departPos="5.10" departSpeed="0.00" departDelay="0.00" arrival="87.00" arrivalLane="edgeN_I_1" arrivalPos="431.30" arrivalSpeed="13.05" duration="79.00" routeLength="994.90" waitingTime="0.00" waitingCount="0" stopTime="0.00" timeLoss="18.98" rerouteNo="0" devices="tripinfo_straightS_7" vType="vehicleS_7" speedFactor="1.19" vaporized=""/>
    <tripinfo id="leftN_3" depart="3.00" departLane="edgeN_O_17" departPos="5.10" departSpeed="0.00" departDelay="0.00" arrival="97.00" arrivalLane="edgeE_I_15" arrivalPos="431.30" arrivalSpeed="10.24" duration="94.00" routeLength="991.87" waitingTime="0.00" waitingCount="0" stopTime="0.00" timeLoss="17.76" rerouteNo="0" devices="tripinfo_leftN_3" vType="vehicleN_3" speedFactor="0.94" vaporized=""/>
    <tripinfo id="rightN_17" depart="23.00" departLane="edgeN_O_1" departPos="5.10" departSpeed="0.00" departDelay="0.00" arrival="100.00" arrivalLane="edgeW_I_1" arrivalPos="431.30" arrivalSpeed="11.97" duration="77.00" routeLength="867.66" waitingTime="0.00" waitingCount="0" stopTime="0.00" timeLoss="19.46" rerouteNo="0" devices="tripinfo_rightN_17" vType="vehicleN_17" speedFactor="1.11" vaporized=""/>
    <tripinfo id="straightN_14" depart="18.00" departLane="edgeN_O_2" departPos="5.10" departSpeed="0.00" departDelay="0.00" arrival="105.00" arrivalLane="edgeS_I_1" arrivalPos="431.30" arrivalSpeed="11.36" duration="87.00" routeLength="994.90" waitingTime="0.00" waitingCount="0" stopTime="0.00" timeLoss="18.33" rerouteNo="0" devices="tripinfo_straightN_14" vType="vehicleN_14" speedFactor="1.05" vaporized=""/>
    <tripinfo id="leftN_10" depart="15.00" departLane="edgeN_O_8" departPos="5.10" departSpeed="0.00" departDelay="0.00" arrival="114.00" arrivalLane="edgeE_I_16" arrivalPos="431.30" arrivalSpeed="12.20" duration="99.00" routeLength="996.78" waitingTime="5.00" waitingCount="1" stopTime="0.00" timeLoss="35.66" rerouteNo="0" devices="tripinfo_leftN_10" vType="vehicleN_10" speedFactor="1.13" vaporized=""/>
    <tripinfo id="leftS_8" depart="12.00" departLane="edgeS_O_16" departPos="5.10" departSpeed="0.00" departDelay="0.00" arrival="116.00" arrivalLane="edgeW_I_13" arrivalPos="431.30" arrivalSpeed="10.03" duration="104.00" routeLength="994.58" waitingTime="0.00" waitingCount="0" stopTime="0.00" timeLoss="27.19" rerouteNo="0" devices="tripinfo_leftS_8" vType="vehicleS_8" speedFactor="0.92" vaporized=""/>
    <tripinfo id="leftN_15" depart="21.00" departLane="edgeN_O_4" departPos="5.10" departSpeed="0.00" departDelay="0.00" arrival="122.00" arrivalLane="edgeE_I_15" arrivalPos="431.30" arrivalSpeed="10.96" duration="101.00" routeLength="1002.25" waitingTime="3.00" waitingCount="1" stopTime="0.00" timeLoss="30.67" rerouteNo="0" devices="tripinfo_leftN_15" vType="vehicleN_15" speedFactor="1.02" vaporized=""/>
    <tripinfo id="uturnW_9" depart="14.00" departLane="edgeW_O_20" departPos="5.10" departSpeed="0.00" departDelay="0.00" arrival="123.00" arrivalLane="edgeW_I_16" arrivalPos="431.30" arrivalSpeed="11.22" duration="109.00" routeLength="862.18" waitingTime="18.00" waitingCount="1" stopTime="0.00" timeLoss="47.07" rerouteNo="0" devices="tripinfo_uturnW_9" vType="vehicleW_9" speedFactor="1.02" vaporized=""/>
    <tripinfo id="uturnW_35" depart="37.00" departLane="edgeW_O_20" departPos="5.10" departSpeed="0.00" departDelay="0.00" arrival="123.00" arrivalLane="edgeW_I_18" arrivalPos="431.30" arrivalSpeed="11.91" duration="86.00" routeLength="862.18" waitingTime="0.00" waitingCount="0" stopTime="0.00" timeLoss="28.64" rerouteNo="0" devices="tripinfo_uturnW_35" vType="vehicleW_35" speedFactor="1.10" vaporized=""/>
    <tripinfo id="uturnE_37" depart="38.00" departLane="edgeE_O_20" departPos="5.10" departSpeed="0.00" departDelay="0.00" arrival="124.00" arrivalLane="edgeE_I_17" arrivalPos="431.30" arrivalSpeed="10.87" duration="86.00" routeLength="862.18" waitingTime="0.00" waitingCount="0" stopTime="0.00" timeLoss="23.27" rerouteNo="0" devices="tripinfo_uturnE_37" vType="vehicleE_37" speedFactor="1.01" vaporized=""/>
    <tripinfo id="leftN_16" depart="22.00" departLane="edgeN_O_18" departPos="5.10" departSpeed="0.00" departDelay="0.00" arrival="127.00" arrivalLane="edgeE_I_16" arrivalPos="431.30" arrivalSpeed="10.76" duration="105.00" routeLength="986.53" waitingTime="8.00" waitingCount="1" stopTime="0.00" timeLoss="34.92" rerouteNo="0" devices="tripinfo_leftN_16" vType="vehicleN_16" speedFactor="1.01" vaporized=""/>
    <tripinfo id="uturnW_39" depart="42.00" departLane="edgeW_O_20" departPos="5.10" departSpeed="0.00" departDelay="1.00" arrival="129.00" arrivalLane="edgeW_I_16" arrivalPos="431.30" arrivalSpeed="10.60" duration="87.00" routeLength="862.18" waitingTime="0.00" waitingCount="0" stopTime="0.00" timeLoss="23.67" rerouteNo="0" devices="tripinfo_uturnW_39" vType="vehicleW_39" speedFactor="0.99" vaporized=""/>
    <tripinfo id="uturnE_44" depart="49.00" departLane="edgeE_O_20" departPos="5.10" departSpeed="0.00" departDelay="0.00" arrival="131.00" arrivalLane="edgeE_I_17" arrivalPos="431.30" arrivalSpeed="11.98" duration="82.00" routeLength="862.18" waitingTime="0.00" waitingCount="0" stopTime="0.00" timeLoss="23.44" rerouteNo="0" devices="tripinfo_uturnE_44" vType="vehicleE_44" speedFactor="1.10" vaporized=""/>
    <tripinfo id="rightW_11" depart="15.00" departLane="edgeW_O_1" departPos="5.10" departSpeed="0.00" departDelay="0.00" arrival="143.00" arrivalLane="edgeS_I_1" arrivalPos="431.30" arrivalSpeed="12.24" duration="128.00" routeLength="867.66" waitingTime="41.00" waitingCount="1" stopTime="0.00" timeLoss="70.81" rerouteNo="0" devices="tripinfo_rightW_11" vType="vehicleW_11" speedFactor="1.12" vaporized=""/>
    <tripinfo id="rightE_13" depart="17.00" departLane="edgeE_O_1" departPos="5.10" departSpeed="0.00" departDelay="0.00" arrival="151.00" arrivalLane="edgeN_I_1" arrivalPos="431.30" arrivalSpeed="9.49" duration="134.00" routeLength="867.66" waitingTime="36.00" waitingCount="1" stopTime="0.00" timeLoss="61.17" rerouteNo="0" devices="tripinfo_rightE_13" vType="vehicleE_13" speedFactor="0.87" vaporized=""/>
    <tripinfo id="rightW_20" depart="24.00" departLane="edgeW_O_1" departPos="5.10" departSpeed="0.00" departDelay="0.00" arrival="151.00" arrivalLane="edgeS_I_1" arrivalPos="431.30" arrivalSpeed="9.77" duration="127.00" routeLength="867.66" waitingTime="32.00" waitingCount="1" stopTime="0.00" timeLoss="58.02" rerouteNo="0" devices="tripinfo_rightW_20" vType="vehicleW_20" speedFactor="0.92" vaporized=""/>
    <tripinfo id="rightW_56" depart="72.00" departLane="edgeW_O_1" departPos="5.10" departSpeed="0.00" departDelay="0.00" arrival="152.00" arrivalLane="edgeS_I_2" arrivalPos="431.30" arrivalSpeed="11.80" duration="80.00" routeLength="867.66" waitingTime="0.00" waitingCount="0" stopTime="0.00" timeLoss="21.28" rerouteNo="0" devices="tripinfo_rightW_56" vType="vehicleW_56" speedFactor="1.08" vaporized=""/>
    <tripinfo id="straightE_12" depart="16.00" departLane="edgeE_O_2" departPos="5.10" departSpeed="0.00" departDelay="0.00" arrival="153.00" arrivalLane="edgeW_I_1" arrivalPos="431.30" arrivalSpeed="11.66" duration="137.00" routeLength="994.90" waitingTime="38.00" waitingCount="1" stopTime="0.00" timeLoss="69.95" rerouteNo="0" devices="tripinfo_straightE_12" vType="vehicleE_12" speedFactor="1.06" vaporized=""/>
    <tripinfo id="straightW_5" depart="6.00" departLane="edgeW_O_1" departPos="5.10" departSpeed="0.00" departDelay="0.00" arrival="154.00" arrivalLane="edgeE_I_1" arrivalPos="431.30" arrivalSpeed="11.00" duration="148.00" routeLength="994.90" waitingTime="47.00" waitingCount="1" stopTime="0.00" timeLoss="78.43" rerouteNo="0" devices="tripinfo_straightW_5" vType="vehicleW_5" speedFactor="1.03" vaporized=""/>
    <tripinfo id="straightE_18" depart="23.00" departLane="edgeE_O_1" departPos="5.10" departSpeed="0.00" departDelay="0.00" arrival="154.00" arrivalLane="edgeW_I_2" arrivalPos="431.30" arrivalSpeed="10.76" duration="131.00" routeLength="994.90" waitingTime="30.00" waitingCount="1" stopTime="0.00" timeLoss="60.48" rerouteNo="0" devices="tripinfo_straightE_18" vType="vehicleE_18" speedFactor="1.01" vaporized=""/>
    <tripinfo id="rightE_40" depart="41.00" departLane="edgeE_O_1" departPos="5.10" departSpeed="0.00" departDelay="0.00" arrival="154.00" arrivalLane="edgeN_I_1" arrivalPos="431.30" arrivalSpeed="9.49" duration="113.00" routeLength="867.66" waitingTime="14.00" waitingCount="1" stopTime="0.00" timeLoss="39.47" rerouteNo="0" devices="tripinfo_rightE_40" vType="vehicleE_40" speedFactor="0.87" vaporized=""/>
    <tripinfo id="rightE_55" depart="71.00" departLane="edgeE_O_1" departPos="5.10" departSpeed="0.00" departDelay="0.00" arrival="154.00" arrivalLane="edgeN_I_3" arrivalPos="431.30" arrivalSpeed="12.09" duration="83.00" routeLength="867.66" waitingTime="0.00" waitingCount="0" stopTime="0.00" timeLoss="25.87" rerouteNo="0" devices="tripinfo_rightE_55" vType="vehicleE_55" speedFactor="1.13" vaporized=""/>
    <tripinfo id="straightE_21" depart="24.00" departLane="edgeE_O_2" departPos="5.10" departSpeed="0.00" departDelay="0.00" arrival="155.00" arrivalLane="edgeW_I_1" arrivalPos="431.30" arrivalSpeed="11.38" duration="131.00" routeLength="994.90" waitingTime="31.00" waitingCount="1" stopTime="0.00" timeLoss="63.21" rerouteNo="0" devices="tripinfo_straightE_21" vType="vehicleE_21" speedFactor="1.05" vaporized=""/>
    <tripinfo id="rightE_42" depart="46.00" departLane="edgeE_O_1" departPos="5.10" departSpeed="0.00" departDelay="3.00" arrival="155.00" arrivalLane="edgeN_I_2" arrivalPos="431.30" arrivalSpeed="9.70" duration="109.00" routeLength="867.66" waitingTime="11.00" waitingCount="1" stopTime="0.00" timeLoss="37.72" rerouteNo="0" devices="tripinfo_rightE_42" vType="vehicleE_42" speedFactor="0.89" vaporized=""/>
    <tripinfo id="straightE_24" depart="26.00" departLane="edgeE_O_3" departPos="5.10" departSpeed="0.00" departDelay="0.00" arrival="156.00" arrivalLane="edgeW_I_2" arrivalPos="431.30" arrivalSpeed="10.90" duration="130.00" routeLength="994.90" waitingTime="29.00" waitingCount="1" stopTime="0.00" timeLoss="59.89" rerouteNo="0" devices="tripinfo_straightE_24" vType="vehicleE_24" speedFactor="1.02" vaporized=""/>
    <tripinfo id="rightE_46" depart="51.00" departLane="edgeE_O_1" departPos="5.10" departSpeed="0.00" departDelay="1.00" arrival="157.00" arrivalLane="edgeN_I_1" arrivalPos="431.30" arrivalSpeed="9.52" duration="106.00" routeLength="867.66" waitingTime="8.00" waitingCount="1" stopTime="0.00" timeLoss="35.44" rerouteNo="0" devices="tripinfo_rightE_46" vType="vehicleE_46" speedFactor="0.90" vaporized=""/>
    <tripinfo id="straightW_1" depart="0.00" departLane="edgeW_O_1" departPos="5.10" departSpeed="0.00" departDelay="0.00" arrival="159.00" arrivalLane="edgeE_I_1" arrivalPos="431.30" arrivalSpeed="9.67" duration="159.00" routeLength="994.90" waitingTime="53.00" waitingCount="1" stopTime="0.00" timeLoss="80.98" rerouteNo="0" devices="tripinfo_straightW_1" vType="vehicleW_1" speedFactor="0.91" vaporized=""/>
    <tripinfo id="straightW_31" depart="34.00" departLane="edgeW_O_3" departPos="5.10" departSpeed="0.00" departDelay="0.00" arrival="159.00" arrivalLane="edgeE_I_2" arrivalPos="431.30" arrivalSpeed="10.26" duration="125.00" routeLength="994.90" waitingTime="22.00" waitingCount="1" stopTime="0.00" timeLoss="50.66" rerouteNo="0" devices="tripinfo_straightW_31" vType="vehicleW_31" speedFactor="0.95" vaporized=""/>
    <tripinfo id="straightE_2" depart="2.00" departLane="edgeE_O_1" departPos="5.10" departSpeed="0.00" departDelay="0.00" arrival="160.00" arrivalLane="edgeW_I_1" arrivalPos="431.30" arrivalSpeed="9.62" duration="158.00" routeLength="994.90" waitingTime="51.00" waitingCount="1" stopTime="0.00" timeLoss="78.53" rerouteNo="0" devices="tripinfo_straightE_2" vType="vehicleE_2" speedFactor="0.90" vaporized=""/>
    <tripinfo id="uturnW_58" depart="76.00" departLane="edgeW_O_20" departPos="5.10" departSpeed="0.00" departDelay="0.00" arrival="160.00" arrivalLane="edgeW_I_16" arrivalPos="431.30" arrivalSpeed="11.03" duration="84.00" routeLength="862.18" waitingTime="0.00" waitingCount="0" stopTime="0.00" timeLoss="23.19" rerouteNo="0" devices="tripinfo_uturnW_58" vType="vehicleW_58" speedFactor="1.03" vaporized=""/>
    <tripinfo id="leftE_61" depart="79.00" departLane="edgeE_O_18" departPos="5.10" departSpeed="0.00" departDelay="0.00" arrival="161.00" arrivalLane="edgeS_I_17" arrivalPos="431.30" arrivalSpeed="12.14" duration="82.00" routeLength="973.47" waitingTime="0.00" waitingCount="0" stopTime="0.00" timeLoss="20.57" rerouteNo="0" devices="tripinfo_leftE_61" vType="vehicleE_61" speedFactor="1.13" vaporized=""/>
    <tripinfo id="straightE_28" depart="30.00" departLane="edgeE_O_2" departPos="5.10" departSpeed="0.00" departDelay="0.00" arrival="162.00" arrivalLane="edgeW_I_1" arrivalPos="431.30" arrivalSpeed="10.06" duration="132.00" routeLength="994.90" waitingTime="26.00" waitingCount="1" stopTime="0.00" timeLoss="54.66" rerouteNo="0" devices="tripinfo_straightE_28" vType="vehicleE_28" speedFactor="0.92" vaporized=""/>
    <tripinfo id="straightE_51" depart="65.00" departLane="edgeE_O_2" departPos="5.10" departSpeed="0.00" departDelay="0.00" arrival="173.00" arrivalLane="edgeW_I_1" arrivalPos="431.30" arrivalSpeed="7.98" duration="108.00" routeLength="994.90" waitingTime="0.00" waitingCount="0" stopTime="0.00" timeLoss="12.95" rerouteNo="0" devices="tripinfo_straightE_51" vType="vehicleE_51" speedFactor="0.75" vaporized=""/>
    <tripinfo id="leftW_67" depart="90.00" departLane="edgeW_O_18" departPos="5.10" departSpeed="0.00" departDelay="0.00" arrival="176.00" arrivalLane="edgeN_I_16" arrivalPos="431.30" arrivalSpeed="11.36" duration="86.00" routeLength="973.47" waitingTime="0.00" waitingCount="0" stopTime="0.00" timeLoss="20.72" rerouteNo="0" devices="tripinfo_leftW_67" vType="vehicleW_67" speedFactor="1.07" vaporized=""/>
    <tripinfo id="leftE_52" depart="67.00" departLane="edgeE_O_5" departPos="5.10" departSpeed="0.00" departDelay="0.00" arrival="180.00" arrivalLane="edgeS_I_13" arrivalPos="431.30" arrivalSpeed="9.8    <tripinfo id="uturnN_16" depart="27.00" departLane="edgeN_O_3" departPos="5.10" departSpeed="0.00" departDelay="18.00" arrival="-1.00" arrivalLane="" arrivalPos="-1.00" arrivalSpeed="-1.00" duration="60.00" routeLength="79.60" waitingTime="42.00" waitingCount="1" stopTime="0.00" timeLoss="54.86" rerouteNo="0" devices="tripinfo_uturnN_16" vType="vehicleN_16" speedFactor="1.01" vaporized="end"/>
    <tripinfo id="rightN_18" depart="25.00" departLane="edgeN_O_1" departPos="5.10" departSpeed="0.00" departDelay="15.00" arrival="-1.00" arrivalLane="" arrivalPos="-1.00" arrivalSpeed="-1.00" duration="62.00" routeLength="79.60" waitingTime="44.00" waitingCount="2" stopTime="0.00" timeLoss="56.86" rerouteNo="0" devices="tripinfo_rightN_18" vType="vehicleN_18" speedFactor="1.01" vaporized="end"/>
    <tripinfo id="leftN_19" depart="32.00" departLane="edgeN_O_3" departPos="5.10" departSpeed="0.00" departDelay="22.00" arrival="-1.00" arrivalLane="" arrivalPos="-1.00" arrivalSpeed="-1.00" duration="55.00" routeLength="72.10" waitingTime="37.00" waitingCount="1" stopTime="0.00" timeLoss="50.12" rerouteNo="0" devices="tripinfo_leftN_19" vType="vehicleN_19" speedFactor="0.98" vaporized="end"/>
    <tripinfo id="uturnN_21" depart="38.00" departLane="edgeN_O_3" departPos="5.10" departSpeed="0.00" departDelay="27.00" arrival="-1.00" arrivalLane="" arrivalPos="-1.00" arrivalSpeed="-1.00" duration="49.00" routeLength="64.60" waitingTime="32.00" waitingCount="1" stopTime="0.00" timeLoss="44.76" rerouteNo="0" devices="tripinfo_uturnN_21" vType="vehicleN_21" speedFactor="1.05" vaporized="end"/>
    <tripinfo id="uturnN_22" depart="43.00" departLane="edgeN_O_3" departPos="5.10" departSpeed="0.00" departDelay="31.00" arrival="-1.00" arrivalLane="" arrivalPos="-1.00" arrivalSpeed="-1.00" duration="44.00" routeLength="57.10" waitingTime="28.00" waitingCount="1" stopTime="0.00" timeLoss="39.99" rerouteNo="0" devices="tripinfo_uturnN_22" vType="vehicleN_22" speedFactor="1.00" vaporized="end"/>
    <tripinfo id="rightN_23" depart="30.00" departLane="edgeN_O_1" departPos="5.10" departSpeed="0.00" departDelay="18.00" arrival="-1.00" arrivalLane="" arrivalPos="-1.00" arrivalSpeed="-1.00" duration="57.00" routeLength="72.10" waitingTime="39.00" waitingCount="2" stopTime="0.00" timeLoss="52.16" rerouteNo="0" devices="tripinfo_rightN_23" vType="vehicleN_23" speedFactor="0.99" vaporized="end"/>
    <tripinfo id="leftN_24" depart="48.00" departLane="edgeN_O_3" departPos="5.10" departSpeed="0.00" departDelay="35.00" arrival="-1.00" arrivalLane="" arrivalPos="-1.00" arrivalSpeed="-1.00" duration="39.00" routeLength="49.59" waitingTime="25.00" waitingCount="1" stopTime="0.00" timeLoss="35.44" rerouteNo="0" devices="tripinfo_leftN_24" vType="vehicleN_24" speedFactor="1.02" vaporized="end"/>
    <tripinfo id="straightN_26" depart="36.00" departLane="edgeN_O_1" departPos="5.10" departSpeed="0.00" departDelay="22.00" arrival="-1.00" arrivalLane="" arrivalPos="-1.00" arrivalSpeed="-1.00" duration="51.00" routeLength="72.10" waitingTime="32.00" waitingCount="2" stopTime="0.00" timeLoss="46.57" rerouteNo="0" devices="tripinfo_straightN_26" vType="vehicleN_26" speedFactor="1.11" vaporized="end"/>
    <tripinfo id="uturnN_30" depart="53.00" departLane="edgeN_O_3" departPos="5.10" departSpeed="0.00" departDelay="38.00" arrival="-1.00" arrivalLane="" arrivalPos="-1.00" arrivalSpeed="-1.00" duration="34.00" routeLength="42.09" waitingTime="21.00" waitingCount="1" stopTime="0.00" timeLoss="30.50" rerouteNo="0" devices="tripinfo_uturnN_30" vType="vehicleN_30" speedFactor="0.88" vaporized="end"/>
    <tripinfo id="leftN_31" depart="58.00" departLane="edgeN_O_3" departPos="5.10" departSpeed="0.00" departDelay="43.00" arrival="-1.00" arrivalLane="" arrivalPos="-1.00" arrivalSpeed="-1.00" duration="29.00" routeLength="34.59" waitingTime="16.00" waitingCount="1" stopTime="0.00" timeLoss="26.09" rerouteNo="0" devices="tripinfo_leftN_31" vType="vehicleN_31" speedFactor="0.95" vaporized="end"/>
    <tripinfo id="uturnN_32" depart="63.00" departLane="edgeN_O_3" departPos="5.10" departSpeed="0.00" departDelay="47.00" arrival="-1.00" arrivalLane="" arrivalPos="-1.00" arrivalSpeed="-1.00" duration="24.00" routeLength="27.09" waitingTime="13.00" waitingCount="1" stopTime="0.00" timeLoss="21.48" rerouteNo="0" devices="tripinfo_uturnN_32" vType="vehicleN_32" speedFactor="0.94" vaporized="end"/>
    <tripinfo id="leftN_33" depart="68.00" departLane="edgeN_O_3" departPos="5.10" departSpeed="0.00" departDelay="52.00" arrival="-1.00" arrivalLane="" arrivalPos="-1.00" arrivalSpeed="-1.00" duration="19.00" routeLength="19.59" waitingTime="10.00" waitingCount="1" stopTime="0.00" timeLoss="17.04" rerouteNo="0" devices="tripinfo_leftN_33" vType="vehicleN_33" speedFactor="1.07" vaporized="end"/>
    <tripinfo id="leftN_34" depart="73.00" departLane="edgeN_O_3" departPos="5.10" departSpeed="0.00" departDelay="56.00" arrival="-1.00" arrivalLane="" arrivalPos="-1.00" arrivalSpeed="-1.00" duration="14.00" routeLength="12.09" waitingTime="6.00" waitingCount="1" stopTime="0.00" timeLoss="12.32" rerouteNo="0" devices="tripinfo_leftN_34" vType="vehicleN_34" speedFactor="0.94" vaporized="end"/>
    <tripinfo id="rightN_36" depart="42.00" departLane="edgeN_O_1" departPos="5.10" departSpeed="0.00" departDelay="24.00" arrival="-1.00" arrivalLane="" arrivalPos="-1.00" arrivalSpeed="-1.00" duration="45.00" routeLength="64.60" waitingTime="28.00" waitingCount="1" stopTime="0.00" timeLoss="40.70" rerouteNo="0" devices="tripinfo_rightN_36" vType="vehicleN_36" speedFactor="1.03" vaporized="end"/>
    <tripinfo id="straightN_37" depart="47.00" departLane="edgeN_O_1" departPos="5.10" departSpeed="0.00" departDelay="29.00" arrival="-1.00" arrivalLane="" arrivalPos="-1.00" arrivalSpeed="-1.00" duration="40.00" routeLength="57.10" waitingTime="24.00" waitingCount="1" stopTime="0.00" timeLoss="36.03" rerouteNo="0" devices="tripinfo_straightN_37" vType="vehicleN_37" speedFactor="1.01" vaporized="end"/>
    <tripinfo id="rightN_40" depart="52.00" departLane="edgeN_O_1" departPos="5.10" departSpeed="0.00" departDelay="33.00" arrival="-1.00" arrivalLane="" arrivalPos="-1.00" arrivalSpeed="-1.00" duration="35.00" routeLength="49.59" waitingTime="21.00" waitingCount="1" stopTime="0.00" timeLoss="30.98" rerouteNo="0" devices="tripinfo_rightN_40" vType="vehicleN_40" speedFactor="0.87" vaporized="end"/>
    <tripinfo id="leftN_42" depart="78.00" departLane="edgeN_O_3" departPos="5.10" departSpeed="0.00" departDelay="58.00" arrival="-1.00" arrivalLane="" arrivalPos="-1.00" arrivalSpeed="-1.00" duration="9.00" routeLength="4.59" waitingTime="3.00" waitingCount="1" stopTime="0.00" timeLoss="7.73" rerouteNo="0" devices="tripinfo_leftN_42" vType="vehicleN_42" speedFactor="0.89" vaporized="end"/>
    <tripinfo id="rightN_44" depart="57.00" departLane="edgeN_O_1" departPos="5.10" departSpeed="0.00" departDelay="36.00" arrival="-1.00" arrivalLane="" arrivalPos="-1.00" arrivalSpeed="-1.00" duration="30.00" routeLength="42.09" waitingTime="16.00" waitingCount="1" stopTime="0.00" timeLoss="26.98" rerouteNo="0" devices="tripinfo_rightN_44" vType="vehicleN_44" speedFactor="1.10" vaporized="end"/>
    <tripinfo id="uturnS_45" depart="21.00" departLane="edgeS_O_3" departPos="5.10" departSpeed="0.00" departDelay="0.00" arrival="-1.00" arrivalLane="" arrivalPos="-1.00" arrivalSpeed="-1.00" duration="66.00" routeLength="79.60" waitingTime="43.00" waitingCount="2" stopTime="0.00" timeLoss="60.89" rerouteNo="0" devices="tripinfo_uturnS_45" vType="vehicleS_45" speedFactor="1.02" vaporized="end"/>
    <tripinfo id="straightN_46" depart="62.00" departLane="edgeN_O_1" departPos="5.10" departSpeed="0.00" departDelay="40.00" arrival="-1.00" arrivalLane="" arrivalPos="-1.00" arrivalSpeed="-1.00" duration="25.00" routeLength="34.59" waitingTime="13.00" waitingCount="1" stopTime="0.00" timeLoss="21.97" rerouteNo="0" devices="tripinfo_straightN_46" vType="vehicleN_46" speedFactor="0.90" vaporized="end"/>
    <tripinfo id="rightS_49" depart="24.00" departLane="edgeS_O_1" departPos="5.10" departSpeed="0.00" departDelay="1.00" arrival="-1.00" arrivalLane="" arrivalPos="-1.00" arrivalSpeed="-1.00" duration="63.00" routeLength="79.60" waitingTime="42.00" waitingCount="1" stopTime="0.00" timeLoss="57.44" rerouteNo="0" devices="tripinfo_rightS_49" vType="vehicleS_49" speedFactor="0.92" vaporized="end"/>
    <tripinfo id="rightN_54" depart="67.00" departLane="edgeN_O_1" departPos="5.10" departSpeed="0.00" departDelay="42.00" arrival="-1.00" arrivalLane="" arrivalPos="-1.00" arrivalSpeed="-1.00" duration="20.00" routeLength="27.09" waitingTime="8.00" waitingCount="1" stopTime="0.00" timeLoss="17.44" rerouteNo="0" devices="tripinfo_rightN_54" vType="vehicleN_54" speedFactor="0.91" vaporized="end"/>
    <tripinfo id="rightN_55" depart="73.00" departLane="edgeN_O_1" departPos="5.10" departSpeed="0.00" departDelay="47.00" arrival="-1.00" arrivalLane="" arrivalPos="-1.00" arrivalSpeed="-1.00" duration="14.00" routeLength="19.59" waitingTime="5.00" waitingCount="1" stopTime="0.00" timeLoss="12.09" rerouteNo="0" devices="tripinfo_rightN_55" vType="vehicleN_55" speedFactor="1.13" vaporized="end"/>
    <tripinfo id="rightN_58" depart="78.00" departLane="edgeN_O_1" departPos="5.10" departSpeed="0.00" departDelay="51.00" arrival="-1.00" arrivalLane="" arrivalPos="-1.00" arrivalSpeed="-1.00" duration="9.00" routeLength="12.08" waitingTime="1.00" waitingCount="1" stopTime="0.00" timeLoss="7.39" rerouteNo="0" devices="tripinfo_rightN_58" vType="vehicleN_58" speedFactor="1.03" vaporized="end"/>
    <tripinfo id="rightN_59" depart="83.00" departLane="edgeN_O_1" departPos="5.10" departSpeed="0.00" departDelay="56.00" arrival="-1.00" arrivalLane="" arrivalPos="-1.00" arrivalSpeed="-1.00" duration="4.00" routeLength="2.79" waitingTime="0.00" waitingCount="0" stopTime="0.00" timeLoss="2.85" rerouteNo="0" devices="tripinfo_rightN_59" vType="vehicleN_59" speedFactor="1.00" vaporized="end"/>
    <tripinfo id="leftS_66" depart="31.00" departLane="edgeS_O_3" departPos="5.10" departSpeed="0.00" departDelay="0.00" arrival="-1.00" arrivalLane="" arrivalPos="-1.00" arrivalSpeed="-1.00" duration="56.00" routeLength="72.10" waitingTime="37.00" waitingCount="1" stopTime="0.00" timeLoss="51.56" rerouteNo="0" devices="tripinfo_leftS_66" vType="vehicleS_66" speedFactor="1.10" vaporized="end"/>
    <tripinfo id="leftS_70" depart="36.00" departLane="edgeS_O_3" departPos="5.10" departSpeed="0.00" departDelay="3.00" arrival="-1.00" arrivalLane="" arrivalPos="-1.00" arrivalSpeed="-1.00" duration="51.00" routeLength="64.60" waitingTime="34.00" waitingCount="1" stopTime="0.00" timeLoss="46.59" rerouteNo="0" devices="tripinfo_leftS_70" vType="vehicleS_70" speedFactor="1.00" vaporized="end"/>
    <tripinfo id="straightN_74" depart="35.00" departLane="edgeN_O_2" departPos="5.10" departSpeed="0.00" departDelay="0.00" arrival="-1.00" arrivalLane="" arrivalPos="-1.00" arrivalSpeed="-1.00" duration="52.00" routeLength="79.60" waitingTime="33.00" waitingCount="1" stopTime="0.00" timeLoss="47.34" rerouteNo="0" devices="tripinfo_straightN_74" vType="vehicleN_74" speedFactor="1.15" vaporized="end"/>
    <tripinfo id="straightS_76" depart="36.00" departLane="edgeS_O_2" departPos="5.10" departSpeed="0.00" departDelay="0.00" arrival="-1.00" arrivalLane="" arrivalPos="-1.00" arrivalSpeed="-1.00" duration="51.00" routeLength="79.60" waitingTime="32.00" waitingCount="1" stopTime="0.00" timeLoss="46.05" rerouteNo="0" devices="tripinfo_straightS_76" vType="vehicleS_76" speedFactor="1.06" vaporized="end"/>
    <tripinfo id="uturnS_82" depart="41.00" departLane="edgeS_O_3" departPos="5.10" departSpeed="0.00" departDelay="3.00" arrival="-1.00" arrivalLane="" arrivalPos="-1.00" arrivalSpeed="-1.00" duration="46.00" routeLength="57.10" waitingTime="30.00" waitingCount="1" stopTime="0.00" timeLoss="42.29" rerouteNo="0" devices="tripinfo_uturnS_82" vType="vehicleS_82" speedFactor="1.11" vaporized="end"/>
    <tripinfo id="straightN_88" depart="42.00" departLane="edgeN_O_2" departPos="5.10" departSpeed="0.00" departDelay="0.00" arrival="-1.00" arrivalLane="" arrivalPos="-1.00" arrivalSpeed="-1.00" duration="45.00" routeLength="64.60" waitingTime="28.00" waitingCount="1" stopTime="0.00" timeLoss="41.01" rerouteNo="0" devices="tripinfo_straightN_88" vType="vehicleN_88" speedFactor="1.14" vaporized="end"/>
    <tripinfo id="straightN_89" depart="47.00" departLane="edgeN_O_2" departPos="5.10" departSpeed="0.00" departDelay="5.00" arrival="-1.00" arrivalLane="" arrivalPos="-1.00" arrivalSpeed="-1.00" duration="40.00" routeLength="57.10" waitingTime="25.00" waitingCount="1" stopTime="0.00" timeLoss="36.18" rerouteNo="0" devices="tripinfo_straightN_89" vType="vehicleN_89" speedFactor="1.07" vaporized="end"/>
    <tripinfo id="leftS_90" depart="46.00" departLane="edgeS_O_3" departPos="5.10" departSpeed="0.00" departDelay="4.00" arrival="-1.00" arrivalLane="" arrivalPos="-1.00" arrivalSpeed="-1.00" duration="41.00" routeLength="49.59" waitingTime="26.00" waitingCount="1" stopTime="0.00" timeLoss="37.21" rerouteNo="0" devices="tripinfo_leftS_90" vType="vehicleS_90" speedFactor="0.94" vaporized="end"/>
    <tripinfo id="straightN_98" depart="52.00" departLane="edgeN_O_2" departPos="5.10" departSpeed="0.00" departDelay="5.00" arrival="-1.00" arrivalLane="" arrivalPos="-1.00" arrivalSpeed="-1.00" duration="35.00" routeLength="49.59" waitingTime="20.00" waitingCount="1" stopTime="0.00" timeLoss="31.66" rerouteNo="0" devices="tripinfo_straightN_98" vType="vehicleN_98" speedFactor="1.12" vaporized="end"/>