<?xml version="1.0" encoding="UTF-8"?>

<!-- generated on 2021-10-16 22:12:41 by Eclipse SUMO sumo Version 1.10.0
<configuration xmlns:xsi="http://www.w3.org/2001/XMLSchema-instance" xsi:noNamespaceSchemaLocation="http://sumo.dlr.de/xsd/sumoConfiguration.xsd">

    <input>
        <net-file value="data/cross.net.xml"/>
        <route-files value="data/cross.rou.xml"/>
    </input>

    <output>
        <tripinfo-output value="data/tripinfo.xml"/>
        <tripinfo-output.write-unfinished value="true"/>
        <statistic-output value="statistics.xml"/>
    </output>

    <time>
        <begin value="0"/>
        <step-length value="1"/>
    </time>

    <processing>
        <threads value="5"/>
        <time-to-teleport value="-1"/>
    </processing>

    <report>
        <verbose value="true"/>
        <no-step-log value="true"/>
    </report>

    <traci_server>
        <remote-port value="57565"/>
    </traci_server>

    <gui_only>
        <tracker-interval value="1"/>
    </gui_only>

</configuration>
-->

<tripinfos xmlns:xsi="http://www.w3.org/2001/XMLSchema-instance" xsi:noNamespaceSchemaLocation="http://sumo.dlr.de/xsd/tripinfo_file.xsd">
    <tripinfo id="straightE_2" depart="2.00" departLane="edgeE_O_1" departPos="5.10" departSpeed="0.00" departDelay="0.00" arrival="93.00" arrivalLane="edgeW_I_1" arrivalPos="482.50" arrivalSpeed="10.90" duration="91.00" routeLength="994.90" waitingTime="0.00" waitingCount="0" stopTime="0.00" timeLoss="20.49" rerouteNo="0" devices="tripinfo_straightE_2" vType="vehicleE_2" speedFactor="1.02" vaporized=""/>
    <tripinfo id="straightW_1" depart="0.00" departLane="edgeW_O_1" departPos="5.10" departSpeed="0.00" departDelay="0.00" arrival="95.00" arrivalLane="edgeE_I_2" arrivalPos="482.50" arrivalSpeed="12.78" duration="95.00" routeLength="994.90" waitingTime="1.00" waitingCount="1" stopTime="0.00" timeLoss="33.79" rerouteNo="0" devices="tripinfo_straightW_1" vType="vehicleW_1" speedFactor="1.17" vaporized=""/>
    <tripinfo id="straightW_5" depart="6.00" departLane="edgeW_O_1" departPos="5.10" departSpeed="0.00" departDelay="0.00" arrival="95.00" arrivalLane="edgeE_I_1" arrivalPos="482.50" arrivalSpeed="10.77" duration="89.00" routeLength="994.90" waitingTime="0.00" waitingCount="0" stopTime="0.00" timeLoss="17.19" rerouteNo="0" devices="tripinfo_straightW_5" vType="vehicleW_5" speedFactor="1.00" vaporized=""/>
    <tripinfo id="leftW_4" depart="5.00" departLane="edgeW_O_3" departPos="5.10" departSpeed="0.00" departDelay="0.00" arrival="97.00" arrivalLane="edgeN_I_1" arrivalPos="482.50" arrivalSpeed="11.01" duration="92.00" routeLength="995.86" waitingTime="0.00" waitingCount="0" stopTime="0.00" timeLoss="19.12" rerouteNo="0" devices="tripinfo_leftW_4" vType="vehicleW_4" speedFactor="1.00" vaporized=""/>
    <tripinfo id="rightW_11" depart="15.00" departLane="edgeW_O_1" departPos="5.10" departSpeed="0.00" departDelay="0.00" arrival="102.00" arrivalLane="edgeS_I_1" arrivalPos="482.50" arrivalSpeed="11.93" duration="87.00" routeLength="970.06" waitingTime="0.00" waitingCount="0" stopTime="0.00" timeLoss="23.27" rerouteNo="0" devices="tripinfo_rightW_11" vType="vehicleW_11" speedFactor="1.12" vaporized=""/>
    <tripinfo id="straightE_12" depart="16.00" departLane="edgeE_O_2" departPos="5.10" departSpeed="0.00" departDelay="0.00" arrival="103.00" arrivalLane="edgeW_I_1" arrivalPos="482.50" arrivalSpeed="10.93" duration="87.00" routeLength="994.90" waitingTime="0.00" waitingCount="0" stopTime="0.00" timeLoss="16.32" rerouteNo="0" devices="tripinfo_straightE_12" vType="vehicleE_12" speedFactor="1.02" vaporized=""/>
    <tripinfo id="uturnW_9" depart="14.00" departLane="edgeW_O_4" departPos="5.10" departSpeed="0.00" departDelay="0.00" arrival="108.00" arrivalLane="edgeW_I_1" arrivalPos="482.50" arrivalSpeed="10.30" duration="94.00" routeLength="964.58" waitingTime="0.00" waitingCount="0" stopTime="0.00" timeLoss="21.77" rerouteNo="0" devices="tripinfo_uturnW_9" vType="vehicleW_9" speedFactor="0.97" vaporized=""/>
    <tripinfo id="rightE_13" depart="17.00" departLane="edgeE_O_1" departPos="5.10" departSpeed="0.00" departDelay="0.00" arrival="108.00" arrivalLane="edgeN_I_1" arrivalPos="482.50" arrivalSpeed="10.61" duration="91.00" routeLength="970.06" waitingTime="0.00" waitingCount="0" stopTime="0.00" timeLoss="19.69" rerouteNo="0" devices="tripinfo_rightE_13" vType="vehicleE_13" speedFactor="0.99" vaporized=""/>
    <tripinfo id="straightE_18" depart="23.00" departLane="edgeE_O_1" departPos="5.10" departSpeed="0.00" departDelay="0.00" arrival="110.00" arrivalLane="edgeW_I_1" arrivalPos="482.50" arrivalSpeed="11.09" duration="87.00" routeLength="994.90" waitingTime="0.00" waitingCount="0" stopTime="0.00" timeLoss="17.85" rerouteNo="0" devices="tripinfo_straightE_18" vType="vehicleE_18" speedFactor="1.04" vaporized=""/>
    <tripinfo id="straightW_23" depart="26.00" departLane="edgeW_O_3" departPos="5.10" departSpeed="0.00" departDelay="0.00" arrival="111.00" arrivalLane="edgeE_I_1" arrivalPos="482.50" arrivalSpeed="11.55" duration="85.00" routeLength="994.90" waitingTime="0.00" waitingCount="0" stopTime="0.00" timeLoss="16.56" rerouteNo="0" devices="tripinfo_straightW_23" vType="vehicleW_23" speedFactor="1.06" vaporized=""/>
    <tripinfo id="uturnW_20" depart="24.00" departLane="edgeW_O_4" departPos="5.10" departSpeed="0.00" departDelay="0.00" arrival="115.00" arrivalLane="edgeW_I_1" arrivalPos="482.50" arrivalSpeed="11.15" duration="91.00" routeLength="964.58" waitingTime="0.00" waitingCount="0" stopTime="0.00" timeLoss="22.05" rerouteNo="0" devices="tripinfo_uturnW_20" vType="vehicleW_20" speedFactor="1.02" vaporized=""/>
    <tripinfo id="straightW_27" depart="30.00" departLane="edgeW_O_1" departPos="5.10" departSpeed="0.00" departDelay="0.00" arrival="119.00" arrivalLane="edgeE_I_1" arrivalPos="482.50" arrivalSpeed="10.42" duration="89.00" routeLength="994.90" waitingTime="0.00" waitingCount="0" stopTime="0.00" timeLoss="15.52" rerouteNo="0" devices="tripinfo_straightW_27" vType="vehicleW_27" speedFactor="0.98" vaporized=""/>
    <tripinfo id="uturnW_29" depart="32.00" departLane="edgeW_O_4" departPos="5.10" departSpeed="0.00" departDelay="0.00" arrival="120.00" arrivalLane="edgeW_I_1" arrivalPos="482.50" arrivalSpeed="11.89" duration="88.00" routeLength="964.58" waitingTime="0.00" waitingCount="0" stopTime="0.00" timeLoss="23.31" rerouteNo="0" devices="tripinfo_uturnW_29" vType="vehicleW_29" speedFactor="1.09" vaporized=""/>
    <tripinfo id="leftE_30" depart="32.00" departLane="edgeE_O_3" departPos="5.10" departSpeed="0.00" departDelay="0.00" arrival="120.00" arrivalLane="edgeS_I_1" arrivalPos="482.50" arrivalSpeed="11.26" duration="88.00" routeLength="995.86" waitingTime="0.00" waitingCount="0" stopTime="0.00" timeLoss="17.49" rerouteNo="0" devices="tripinfo_leftE_30" vType="vehicleE_30" speedFactor="1.03" vaporized=""/>
    <tripinfo id="uturnW_34" depart="37.00" departLane="edgeW_O_4" departPos="5.10" departSpeed="0.00" departDelay="0.00" arrival="123.00" arrivalLane="edgeW_I_1" arrivalPos="482.50" arrivalSpeed="12.30" duration="86.00" routeLength="964.58" waitingTime="0.00" waitingCount="0" stopTime="0.00" timeLoss="24.61" rerouteNo="0" devices="tripinfo_uturnW_34" vType="vehicleW_34" speedFactor="1.15" vaporized=""/>
    <tripinfo id="uturnE_35" depart="37.00" departLane="edgeE_O_4" departPos="5.10" departSpeed="0.00" departDelay="0.00" arrival="132.00" arrivalLane="edgeE_I_1" arrivalPos="482.50" arrivalSpeed="10.56" duration="95.00" routeLength="964.58" waitingTime="0.00" waitingCount="0" stopTime="0.00" timeLoss="21.62" rerouteNo="0" devices="tripinfo_uturnE_35" vType="vehicleE_35" speedFactor="0.98" vaporized=""/>
    <tripinfo id="uturnE_39" depart="42.00" departLane="edgeE_O_4" departPos="5.10" departSpeed="0.00" departDelay="1.00" arrival="135.00" arrivalLane="edgeE_I_1" arrivalPos="482.50" arrivalSpeed="10.99" duration="93.00" routeLength="964.58" waitingTime="0.00" waitingCount="0" stopTime="0.00" timeLoss="23.62" rerouteNo="0" devices="tripinfo_uturnE_39" vType="vehicleE_39" speedFactor="1.02" vaporized=""/>
    <tripinfo id="straightS_7" depart="8.00" departLane="edgeS_O_3" departPos="5.10" departSpeed="0.00" departDelay="0.00" arrival="141.00" arrivalLane="edgeN_I_1" arrivalPos="482.50" arrivalSpeed="12.26" duration="133.00" routeLength="994.90" waitingTime="38.00" waitingCount="1" stopTime="0.00" timeLoss="70.31" rerouteNo="0" devices="tripinfo_straightS_7" vType="vehicleS_7" speedFactor="1.14" vaporized=""/>
    <tripinfo id="rightS_36" depart="38.00" departLane="edgeS_O_1" departPos="5.10" departSpeed="0.00" departDelay="0.00" arrival="146.00" arrivalLane="edgeE_I_1" arrivalPos="482.50" arrivalSpeed="10.82" duration="108.00" routeLength="970.06" waitingTime="10.00" waitingCount="1" stopTime="0.00" timeLoss="36.93" rerouteNo="0" devices="tripinfo_rightS_36" vType="vehicleS_36" speedFactor="1.00" vaporized=""/>
    <tripinfo id="rightN_6" depart="7.00" departLane="edgeN_O_1" departPos="5.10" departSpeed="0.00" departDelay="0.00" arrival="148.00" arrivalLane="edgeW_I_1" arrivalPos="482.50" arrivalSpeed="9.78" duration="141.00" routeLength="970.06" waitingTime="38.00" waitingCount="1" stopTime="0.00" timeLoss="62.06" rerouteNo="0" devices="tripinfo_rightN_6" vType="vehicleN_6" speedFactor="0.90" vaporized=""/>
    <tripinfo id="straightN_14" depart="18.00" departLane="edgeN_O_2" departPos="5.10" departSpeed="0.00" departDelay="0.00" arrival="148.00" arrivalLane="edgeS_I_1" arrivalPos="482.50" arrivalSpeed="10.16" duration="130.00" routeLength="994.90" waitingTime="28.00" waitingCount="1" stopTime="0.00" timeLoss="53.47" rerouteNo="0" devices="tripinfo_straightN_14" vType="vehicleN_14" speedFactor="0.94" vaporized=""/>
    <tripinfo id="straightS_32" depart="39.00" departLane="edgeS_O_3" departPos="5.10" departSpeed="0.00" departDelay="4.00" arrival="148.00" arrivalLane="edgeN_I_1" arrivalPos="482.50" arrivalSpeed="10.95" duration="109.00" routeLength="994.90" waitingTime="1.00" waitingCount="1" stopTime="0.00" timeLoss="38.32" rerouteNo="0" devices="tripinfo_straightS_32" vType="vehicleS_32" speedFactor="1.02" vaporized=""/>
    <tripinfo id="rightN_40" depart="42.00" departLane="edgeN_O_1" departPos="5.10" departSpeed="0.00" departDelay="0.00" arrival="148.00" arrivalLane="edgeW_I_2" arrivalPos="482.50" arrivalSpeed="10.98" duration="106.00" routeLength="970.06" waitingTime="5.00" waitingCount="1" stopTime="0.00" timeLoss="36.22" rerouteNo="0" devices="tripinfo_rightN_40" vType="vehicleN_40" speedFactor="1.02" vaporized=""/>
    <tripinfo id="straightN_21" depart="25.00" departLane="edgeN_O_2" departPos="5.10" departSpeed="0.00" departDelay="0.00" arrival="149.00" arrivalLane="edgeS_I_3" arrivalPos="482.50" arrivalSpeed="10.44" duration="124.00" routeLength="994.90" waitingTime="22.00" waitingCount="1" stopTime="0.00" timeLoss="50.03" rerouteNo="0" devices="tripinfo_straightN_21" vType="vehicleN_21" speedFactor="0.97" vaporized=""/>
    <tripinfo id="rightN_17" depart="23.00" departLane="edgeN_O_1" departPos="5.10" departSpeed="0.00" departDelay="0.00" arrival="150.00" arrivalLane="edgeW_I_1" arrivalPos="482.50" arrivalSpeed="9.94" duration="127.00" routeLength="970.06" waitingTime="23.00" waitingCount="1" stopTime="0.00" timeLoss="49.27" rerouteNo="0" devices="tripinfo_rightN_17" vType="vehicleN_17" speedFactor="0.91" vaporized=""/>
    <tripinfo id="straightN_24" depart="27.00" departLane="edgeN_O_3" departPos="5.10" departSpeed="0.00" departDelay="0.00" arrival="150.00" arrivalLane="edgeS_I_1" arrivalPos="482.50" arrivalSpeed="10.16" duration="123.00" routeLength="994.90" waitingTime="14.00" waitingCount="2" stopTime="0.00" timeLoss="47.42" rerouteNo="0" devices="tripinfo_straightN_24" vType="vehicleN_24" speedFactor="0.96" vaporized=""/>
    <tripinfo id="straightN_28" depart="31.00" departLane="edgeN_O_2" departPos="5.10" departSpeed="0.00" departDelay="0.00" arrival="150.00" arrivalLane="edgeS_I_4" arrivalPos="482.50" arrivalSpeed="10.71" duration="119.00" routeLength="994.90" waitingTime="14.00" waitingCount="2" stopTime="0.00" timeLoss="47.86" rerouteNo="0" devices="tripinfo_straightN_28" vType="vehicleN_28" speedFactor="1.01" vaporized=""/>
    <tripinfo id="straightS_22" depart="29.00" departLane="edgeS_O_3" departPos="5.10" departSpeed="0.00" departDelay="4.00" arrival="151.00" arrivalLane="edgeN_I_1" arrivalPos="482.50" arrivalSpeed="10.31" duration="122.00" routeLength="994.90" waitingTime="18.00" waitingCount="1" stopTime="0.00" timeLoss="45.65" rerouteNo="0" devices="tripinfo_straightS_22" vType="vehicleS_22" speedFactor="0.94" vaporized=""/>
    <tripinfo id="straightS_0" depart="0.00" departLane="edgeS_O_3" departPos="5.10" departSpeed="0.00" departDelay="0.00" arrival="153.00" arrivalLane="edgeN_I_1" arrivalPos="482.50" arrivalSpeed="9.26" duration="153.00" routeLength="994.90" waitingTime="44.00" waitingCount="1" stopTime="0.00" timeLoss="68.69" rerouteNo="0" devices="tripinfo_straightS_0" vType="vehicleS_0" speedFactor="0.85" vaporized=""/>
    <tripinfo id="rightN_46" depart="52.00" departLane="edgeN_O_1" departPos="5.10" departSpeed="0.00" departDelay="1.00" arrival="153.00" arrivalLane="edgeW_I_1" arrivalPos="482.50" arrivalSpeed="10.79" duration="101.00" routeLength="970.06" waitingTime="0.00" waitingCount="0" stopTime="0.00" timeLoss="30.64" rerouteNo="0" devices="tripinfo_rightN_46" vType="vehicleN_46" speedFactor="1.01" vaporized=""/>
    <tripinfo id="straightN_51" depart="66.00" departLane="edgeN_O_2" departPos="5.10" departSpeed="0.00" departDelay="0.00" arrival="158.00" arrivalLane="edgeS_I_1" arrivalPos="482.50" arrivalSpeed="10.37" duration="92.00" routeLength="994.90" waitingTime="0.00" waitingCount="0" stopTime="0.00" timeLoss="17.24" rerouteNo="0" devices="tripinfo_straightN_51" vType="vehicleN_51" speedFactor="0.96" vaporized=""/>
    <tripinfo id="rightN_55" depart="72.00" departLane="edgeN_O_1" departPos="5.10" departSpeed="0.00" departDelay="0.00" arrival="158.00" arrivalLane="edgeW_I_2" arrivalPos="482.50" arrivalSpeed="11.58" duration="86.00" routeLength="970.06" waitingTime="0.00" waitingCount="0" stopTime="0.00" timeLoss="20.29" rerouteNo="0" devices="tripinfo_rightN_55" vType="vehicleN_55" speedFactor="1.07" vaporized=""/>
    <tripinfo id="rightN_42" depart="47.00" departLane="edgeN_O_1" departPos="5.10" departSpeed="0.00" departDelay="3.00" arrival="159.00" arrivalLane="edgeW_I_1" arrivalPos="482.50" arrivalSpeed="8.88" duration="112.00" routeLength="970.06" waitingTime="1.00" waitingCount="1" stopTime="0.00" timeLoss="26.95" rerouteNo="0" devices="tripinfo_rightN_42" vType="vehicleN_42" speedFactor="0.83" vaporized=""/>
    <tripinfo id="straightS_48" depart="58.00" departLane="edgeS_O_1" departPos="5.10" departSpeed="0.00" departDelay="0.00" arrival="163.00" arrivalLane="edgeN_I_1" arrivalPos="482.50" arrivalSpeed="12.19" duration="105.00" routeLength="994.90" waitingTime="8.00" waitingCount="1" stopTime="0.00" timeLoss="40.87" rerouteNo="0" devices="tripinfo_straightS_48" vType="vehicleS_48" speedFactor="1.12" vaporized=""/>
    <tripinfo id="leftS_19" depart="24.00" departLane="edgeS_O_3" departPos="5.10" departSpeed="0.00" departDelay="0.00" arrival="167.00" arrivalLane="edgeW_I_1" arrivalPos="482.50" arrivalSpeed="11.17" duration="143.00" routeLength="993.32" waitingTime="36.00" waitingCount="2" stopTime="0.00" timeLoss="72.69" rerouteNo="0" devices="tripinfo_leftS_19" vType="vehicleS_19" speedFactor="1.02" vaporized=""/>
    <tripinfo id="straightS_54" depart="71.00" departLane="edgeS_O_2" departPos="5.10" departSpeed="0.00" departDelay="0.00" arrival="167.00" arrivalLane="edgeN_I_1" arrivalPos="482.50" arrivalSpeed="9.54" duration="96.00" routeLength="994.90" waitingTime="0.00" waitingCount="0" stopTime="0.00" timeLoss="15.11" rerouteNo="0" devices="tripinfo_straightS_54" vType="vehicleS_54" speedFactor="0.89" vaporized=""/>
    <tripinfo id="leftN_10" depart="15.00" departLane="edgeN_O_3" departPos="5.10" departSpeed="0.00" departDelay="0.00" arrival="170.00" arrivalLane="edgeE_I_1" arrivalPos="482.50" arrivalSpeed="11.80" duration="155.00" routeLength="993.32" waitingTime="51.00" waitingCount="2" stopTime="0.00" timeLoss="87.73" rerouteNo="0" devices="tripinfo_leftN_10" vType="vehicleN_10" speedFactor="1.08" vaporized=""/>
    <tripinfo id="leftS_26" depart="28.00" departLane="edgeS_O_4" departPos="5.10" departSpeed="0.00" departDelay="0.00" arrival="170.00" arrivalLane="edgeW_I_1" arrivalPos="482.50" arrivalSpeed="11.29" duration="142.00" routeLength="993.32" waitingTime="33.00" waitingCount="2" stopTime="0.00" timeLoss="71.56" rerouteNo="0" devices="tripinfo_leftS_26" vType="vehicleS_26" speedFactor="1.03" vaporized=""/>
    <tripinfo id="leftS_25" depart="34.00" departLane="edgeS_O_3" departPos="5.10" departSpeed="0.00" departDelay="7.00" arrival="173.00" arrivalLane="edgeW_I_1" arrivalPos="482.50" arrivalSpeed="10.54" duration="139.00" routeLength="993.32" waitingTime="29.00" waitingCount="2" stopTime="0.00" timeLoss="65.75" rerouteNo="0" devices="tripinfo_leftS_25" vType="vehicleS_25" speedFactor="0.98" vaporized=""/>
    <tripinfo id="leftS_38" depart="40.00" departLane="edgeS_O_4" departPos="5.10" departSpeed="0.00" departDelay="0.00" arrival="174.00" arrivalLane="edgeW_I_2" arrivalPos="482.50" arrivalSpeed="10.80" duration="134.00" routeLength="993.32" waitingTime="24.00" waitingCount="2" stopTime="0.00" timeLoss="62.36" rerouteNo="0" devices="tripinfo_leftS_38" vType="vehicleS_38" speedFactor="1.01" vaporized=""/>
    <tripinfo id="uturnN_37" depart="39.00" departLane="edgeN_O_4" departPos="5.10" departSpeed="0.00" departDelay="0.00" arrival="176.00" arrivalLane="edgeN_I_1" arrivalPos="482.50" arrivalSpeed="11.13" duration="137.00" routeLength="964.58" waitingTime="32.00" waitingCount="2" stopTime="0.00" timeLoss="68.82" rerouteNo="0" devices="tripinfo_uturnN_37" vType="vehicleN_37" speedFactor="1.04" vaporized=""/>
    <tripinfo id="uturnN_44" depart="50.00" departLane="edgeN_O_4" departPos="5.10" departSpeed="0.00" departDelay="0.00" arrival="176.00" arrivalLane="edgeN_I_2" arrivalPos="482.50" arrivalSpeed="11.67" duration="126.00" routeLength="964.58" waitingTime="19.00" waitingCount="1" stopTime="0.00" timeLoss="61.70" rerouteNo="0" devices="tripinfo_uturnN_44" vType="vehicleN_44" speedFactor="1.09" vaporized=""/>
    <tripinfo id="leftN_3" depart="3.00" departLane="edgeN_O_4" departPos="5.10" departSpeed="0.00" departDelay="0.00" arrival="178.00" arrivalLane="edgeE_I_2" arrivalPos="482.50" arrivalSpeed="11.98" duration="175.00" routeLength="995.86" waitingTime="73.00" waitingCount="2" stopTime="0.00" timeLoss="108.89" rerouteNo="0" devices="tripinfo_leftN_3" vType="vehicleN_3" speedFactor="1.10" vaporized=""/>
    <tripinfo id="leftN_15" depart="21.00" departLane="edgeN_O_3" departPos="5.10" departSpeed="0.00" departDelay="0.00" arrival="180.00" arrivalLane="edgeE_I_1" arrivalPos="482.50" arrivalSpeed="9.54" duration="159.00" routeLength="993.32" waitingTime="46.00" waitingCount="2" stopTime="0.00" timeLoss="77.06" rerouteNo="0" devices="tripinfo_leftN_15" vType="vehicleN_15" speedFactor="0.88" vaporized=""/>
    <tripinfo id="uturnS_59" depart="77.00" departLane="edgeS_O_4" departPos="5.10" departSpeed="0.00" departDelay="0.00" arrival="180.00" arrivalLane="edgeS_I_2" arrivalPos="482.50" arrivalSpeed="10.47" duration="103.00" routeLength="964.58" waitingTime="0.00" waitingCount="0" stopTime="0.00" timeLoss="29.11" rerouteNo="0" devices="tripinfo_uturnS_59" vType="vehicleS_59" speedFactor="0.96" vaporized=""/>
    <tripinfo id="uturnS_41" depart="45.00" departLane="edgeS_O_4" departPos="5.10" departSpeed="0.00" departDelay="2.00" arrival="181.00" arrivalLane="edgeS_I_1" arrivalPos="482.50" arrivalSpeed="9.68" duration="136.00" routeLength="964.58" waitingTime="18.00" waitingCount="2" stopTime="0.00" timeLoss="56.20" rerouteNo="0" devices="tripinfo_uturnS_41" vType="vehicleS_41" speedFactor="0.89" vaporized=""/>
    <tripinfo id="leftS_8" depart="12.00" departLane="edgeS_O_4" departPos="5.10" departSpeed="0.00" departDelay="0.00" arrival="182.00" arrivalLane="edgeW_I_1" arrivalPos="482.50" arrivalSpeed="10.92" duration="170.00" routeLength="995.86" waitingTime="62.00" waitingCount="3" stopTime="0.00" timeLoss="99.50" rerouteNo="0" devices="tripinfo_leftS_8" vType="vehicleS_8" speedFactor="1.02" vaporized=""/>
    <tripinfo id="leftS_45" depart="50.00" departLane="edgeS_O_4" departPos="5.10" departSpeed="0.00" departDelay="0.00" arrival="183.00" arrivalLane="edgeW_I_2" arrivalPos="482.50" arrivalSpeed="11.42" duration="133.00" routeLength="995.86" waitingTime="24.00" waitingCount="1" stopTime="0.00" timeLoss="64.23" rerouteNo="0" devices="tripinfo_leftS_45" vType="vehicleS_45" speedFactor="1.06" vaporized=""/>
    <tripinfo id="leftN_52" depart="68.00" departLane="edgeN_O_3" departPos="5.10" departSpeed="0.00" departDelay="0.00" arrival="184.00" arrivalLane="edgeE_I_1" arrivalPos="482.50" arrivalSpeed="10.43" duration="116.00" routeLength="995.86" waitingTime="12.00" waitingCount="1" stopTime="0.00" timeLoss="41.51" rerouteNo="0" devices="tripinfo_leftN_52" vType="vehicleN_52" speedFactor="0.97" vaporized=""/>
    <tripinfo id="uturnE_58" depart="76.00" departLane="edgeE_O_4" departPos="5.10" departSpeed="0.00" departDelay="0.00" arrival="186.00" arrivalLane="edgeE_I_2" arrivalPos="482.50" arrivalSpeed="11.41" duration="110.00" routeLength="964.58" waitingTime="16.00" waitingCount="1" stopTime="0.00" timeLoss="43.80" rerouteNo="0" devices="tripinfo_uturnE_58" vType="vehicleE_58" speedFactor="1.06" vaporized=""/>
    <tripinfo id="uturnW_57" depart="73.00" departLane="edgeW_O_4" departPos="5.10" departSpeed="0.00" departDelay="0.00" arrival="187.00" arrivalLane="edgeW_I_1" arrivalPos="482.50" arrivalSpeed="11.00" duration="114.00" routeLength="964.58" waitingTime="18.00" waitingCount="1" stopTime="0.00" timeLoss="45.39" rerouteNo="0" devices="tripinfo_uturnW_57" vType="vehicleW_57" speedFactor="1.03" vaporized=""/>
    <tripinfo id="rightW_62" depart="83.00" departLane="edgeW_O_1" departPos="5.10" departSpeed="0.00" departDelay="0.00" arrival="187.00" arrivalLane="edgeS_I_1" arrivalPos="482.50" arrivalSpeed="12.04" duration="104.00" routeLength="970.06" waitingTime="9.00" waitingCount="1" stopTime="0.00" timeLoss="39.80" rerouteNo="0" devices="tripinfo_rightW_62" vType="vehicleW_62" speedFactor="1.10" vaporized=""/>
    <tripinfo id="rightW_66" depart="88.00" departLane="edgeW_O_1" departPos="5.10" departSpeed="0.00" departDelay="2.00" arrival="189.00" arrivalLane="edgeS_I_2" arrivalPos="482.50" arrivalSpeed="12.92" duration="101.00" routeLength="970.06" waitingTime="7.00" waitingCount="1" stopTime="0.00" timeLoss="40.15" rerouteNo="0" devices="tripinfo_rightW_66" vType="vehicleW_66" speedFactor="1.18" vaporized=""/>
    <tripinfo id="rightW_43" depart="45.00" departLane="edgeW_O_1" departPos="5.10" departSpeed="0.00" departDelay="0.00" arrival="191.00" arrivalLane="edgeS_I_1" arrivalPos="482.50" arrivalSpeed="10.11" duration="146.00" routeLength="970.06" waitingTime="45.00" waitingCount="1" stopTime="0.00" timeLoss="69.50" rerouteNo="0" devices="tripinfo_rightW_43" vType="vehicleW_43" speedFactor="0.92" vaporized=""/>
    <tripinfo id="rightW_75" depart="104.00" departLane="edgeW_O_1" departPos="5.10" departSpeed="0.00" departDelay="0.00" arrival="191.00" arrivalLane="edgeS_I_2" arrivalPos="482.50" arrivalSpeed="12.58" duration="87.00" routeLength="970.06" waitingTime="0.00" waitingCount="0" stopTime="0.00" timeLoss="25.44" rerouteNo="0" devices="tripinfo_rightW_75" vType="vehicleW_75" speedFactor="1.15" vaporized=""/>
    <tripinfo id="leftW_33" depart="36.00" departLane="edgeW_O_3" departPos="5.10" departSpeed="0.00" departDelay="0.00" arrival="201.00" arrivalLane="edgeN_I_1" arrivalPos="482.50" arrivalSpeed="10.54" duration="165.00" routeLength="995.86" waitingTime="54.00" waitingCount="1" stopTime="0.00" timeLoss="89.84" rerouteNo="0" devices="tripinfo_leftW_33" vType="vehicleW_33" speedFactor="0.97" vaporized=""/>
    <tripinfo id="uturnW_60" depart="78.00" departLane="edgeW_O_4" departPos="5.10" departSpeed="0.00" departDelay="0.00" arrival="201.00" arrivalLane="edgeW_I_1" arrivalPos="482.50" arrivalSpeed="10.19" duration="123.00" routeLength="964.58" waitingTime="15.00" waitingCount="2" stopTime="0.00" timeLoss="46.35" rerouteNo="0" devices="tripinfo_uturnW_60" vType="vehicleW_60" speedFactor="0.93" vaporized=""/>
    <tripinfo id="straightW_49" depart="58.00" departLane="edgeW_O_2" departPos="5.10" departSpeed="0.00" departDelay="0.00" arrival="204.00" arrivalLane="edgeE_I_1" arrivalPos="482.50" arrivalSpeed="11.87" duration="146.00" routeLength="994.90" waitingTime="43.00" waitingCount="2" stopTime="0.00" timeLoss="80.90" rerouteNo="0" devices="tripinfo_straightW_49" vType="vehicleW_49" speedFactor="1.10" vaporized=""/>
    <tripinfo id="straightS_50" depart="61.00" departLane="edgeS_O_2" departPos="5.10" departSpeed="0.00" departDelay="0.00" arrival="204.00" arrivalLane="edgeN_I_1" arrivalPos="482.50" arrivalSpeed="11.70" duration="143.00" routeLength="994.90" waitingTime="33.00" waitingCount="3" stopTime="0.00" timeLoss="75.26" rerouteNo="0" devices="tripinfo_straightS_50" vType="vehicleS_50" speedFactor="1.07" vaporized=""/>
    <tripinfo id="uturnE_80" depart="114.00" departLane="edgeE_O_4" departPos="5.10" departSpeed="0.00" departDelay="0.00" arrival="204.00" arrivalLane="edgeE_I_2" arrivalPos="482.50" arrivalSpeed="11.28" duration="90.00" routeLength="964.58" waitingTime="0.00" waitingCount="0" stopTime="0.00" timeLoss="21.86" rerouteNo="0" devices="tripinfo_uturnE_80" vType="vehicleE_80" speedFactor="1.03" vaporized=""/>
    <tripinfo id="uturnW_84" depart="119.00" departLane="edgeW_O_4" departPos="5.10" departSpeed="0.00" departDelay="2.00" arrival="205.00" arrivalLane="edgeW_I_2" arrivalPos="482.50" arrivalSpeed="13.25" duration="86.00" routeLength="964.58" waitingTime="0.00" waitingCount="0" stopTime="0.00" timeLoss="28.19" rerouteNo="0" devices="tripinfo_uturnW_84" vType="vehicleW_84" speedFactor="1.23" vaporized=""/>
    <tripinfo id="uturnE_86" depart="120.00" departLane="edgeE_O_4" departPos="5.10" departSpeed="0.00" departDelay="0.00" arrival="208.00" arrivalLane="edgeE_I_1" arrivalPos="482.50" arrivalSpeed="12.05" duration="88.00" routeLength="964.58" waitingTime="0.00" waitingCount="0" stopTime="0.00" timeLoss="25.05" rerouteNo="0" devices="tripinfo_uturnE_86" vType="vehicleE_86" speedFactor="1.12" vaporized=""/>
    <tripinfo id="uturnW_79" depart="114.00" departLane="edgeW_O_4" departPos="5.10" departSpeed="0.00" departDelay="0.00" arrival="209.00" arrivalLane="edgeW_I_1" arrivalPos="482.50" arrivalSpeed="11.02" duration="95.00" routeLength="964.58" waitingTime="0.00" waitingCount="0" stopTime="0.00" timeLoss="24.96" rerouteNo="0" devices="tripinfo_uturnW_79" vType="vehicleW_79" speedFactor="1.01" vaporized=""/>
    <tripinfo id="leftW_64" depart="85.00" departLane="edgeW_O_3" departPos="5.10" departSpeed="0.00" departDelay="0.00" arrival="213.00" arrivalLane="edgeN_I_1" arrivalPos="482.50" arrivalSpeed="11.85" duration="128.00" routeLength="993.32" waitingTime="19.00" waitingCount="3" stopTime="0.00" timeLoss="61.64" rerouteNo="0" devices="tripinfo_leftW_64" vType="vehicleW_64" speedFactor="1.10" vaporized=""/>
    <tripinfo id="rightW_77" depart="110.00" departLane="edgeW_O_1" departPos="5.10" departSpeed="0.00" departDelay="0.00" arrival="213.00" arrivalLane="edgeS_I_1" arrivalPos="482.50" arrivalSpeed="8.97" duration="103.00" routeLength="970.06" waitingTime="0.00" waitingCount="0" stopTime="0.00" timeLoss="16.37" rerouteNo="0" devices="tripinfo_rightW_77" vType="vehicleW_77" speedFactor="0.82" vaporized=""/>
    <tripinfo id="leftW_93" depart="132.00" departLane="edgeW_O_3" departPos="5.10" departSpeed="0.00" departDelay="0.00" arrival="220.00" arrivalLane="edgeN_I_1" arrivalPos="482.50" arrivalSpeed="12.10" duration="88.00" routeLength="993.32" waitingTime="0.00" waitingCount="0" stopTime="0.00" timeLoss="23.70" rerouteNo="0" devices="tripinfo_leftW_93" vType="vehicleW_93" speedFactor="1.13" vaporized=""/>
    <tripinfo id="leftW_85" depart="118.00" departLane="edgeW_O_3" departPos="5.10" departSpeed="0.00" departDelay="0.00" arrival="222.00" arrivalLane="edgeN_I_1" arrivalPos="482.50" arrivalSpeed="11.07" duration="104.00" routeLength="995.86" waitingTime="4.00" waitingCount="1" stopTime="0.00" timeLoss="31.96" rerouteNo="0" devices="tripinfo_leftW_85" vType="vehicleW_85" speedFactor="1.01" vaporized=""/>
    <tripinfo id="leftN_16" depart="22.00" departLane="edgeN_O_4" departPos="5.10" departSpeed="0.00" departDelay="0.00" arrival="224.00" arrivalLane="edgeE_I_1" arrivalPos="482.50" arrivalSpeed="9.71" duration="202.00" routeLength="993.32" waitingTime="80.00" waitingCount="3" stopTime="0.00" timeLoss="122.17" rerouteNo="0" devices="tripinfo_leftN_16" vType="vehicleN_16" speedFactor="0.91" vaporized=""/>
    <tripinfo id="leftE_67" depart="90.00" departLane="edgeE_O_4" departPos="5.10" departSpeed="0.00" departDelay="0.00" arrival="225.00" arrivalLane="edgeS_I_1" arrivalPos="482.50" arrivalSpeed="10.88" duration="135.00" routeLength="993.32" waitingTime="17.00" waitingCount="3" stopTime="0.00" timeLoss="62.87" rerouteNo="0" devices="tripinfo_leftE_67" vType="vehicleE_67" speedFactor="1.00" vaporized=""/>
    <tripinfo id="leftE_47" depart="53.00" departLane="edgeE_O_4" departPos="5.10" departSpeed="0.00" departDelay="0.00" arrival="227.00" arrivalLane="edgeS_I_1" arrivalPos="482.50" arrivalSpeed="9.78" duration="174.00" routeLength="995.86" waitingTime="49.00" waitingCount="2" stopTime="0.00" timeLoss="93.91" rerouteNo="0" devices="tripinfo_leftE_47" vType="vehicleE_47" speedFactor="0.91" vaporized=""/>