<?xml version="1.0" encoding="UTF-8"?>

<!-- generated on 2021-11-02 21:39:29 by Eclipse SUMO sumo Version 1.10.0
<configuration xmlns:xsi="http://www.w3.org/2001/XMLSchema-instance" xsi:noNamespaceSchemaLocation="http://sumo.dlr.de/xsd/sumoConfiguration.xsd">

    <input>
        <net-file value="data/cross.net.xml"/>
        <route-files value="data/cross.rou.xml"/>
        <additional-files value="data/cross.tls.xml"/>
    </input>

    <output>
        <tripinfo-output value="data/tripinfo.xml"/>
        <tripinfo-output.write-unfinished value="true"/>
    </output>

    <time>
        <begin value="0"/>
        <step-length value="1"/>
    </time>

    <processing>
        <threads value="5"/>
        <time-to-teleport value="-1"/>
    </processing>

    <report>
        <verbose value="true"/>
        <no-warnings value="true"/>
        <no-step-log value="true"/>
    </report>

    <traci_server>
        <remote-port value="52650"/>
    </traci_server>

    <gui_only>
        <gui-settings-file value="data/viewsettings.xml"/>
        <quit-on-end value="true"/>
        <tracker-interval value="1"/>
    </gui_only>

</configuration>
-->

<tripinfos xmlns:xsi="http://www.w3.org/2001/XMLSchema-instance" xsi:noNamespaceSchemaLocation="http://sumo.dlr.de/xsd/tripinfo_file.xsd">
    <tripinfo id="straightN_2" depart="1.00" departLane="edgeN_O_3" departPos="5.37" departSpeed="0.00" departDelay="0.00" arrival="79.00" arrivalLane="edgeS_I_1" arrivalPos="882.50" arrivalSpeed="19.91" duration="78.00" routeLength="1394.63" waitingTime="0.00" waitingCount="0" stopTime="0.00" timeLoss="8.07" rerouteNo="0" devices="tripinfo_straightN_2" vType="vehicleN_2" speedFactor="0.98" vaporized=""/>
    <tripinfo id="straightN_13" depart="12.00" departLane="edgeN_O_3" departPos="5.42" departSpeed="0.00" departDelay="0.00" arrival="82.00" arrivalLane="edgeS_I_1" arrivalPos="882.50" arrivalSpeed="21.34" duration="70.00" routeLength="1394.58" waitingTime="0.00" waitingCount="0" stopTime="0.00" timeLoss="7.17" rerouteNo="0" devices="tripinfo_straightN_13" vType="vehicleN_13" speedFactor="1.09" vaporized=""/>
    <tripinfo id="straightW_15" depart="13.00" departLane="edgeW_O_1" departPos="4.98" departSpeed="0.00" departDelay="0.00" arrival="88.00" arrivalLane="edgeE_I_3" arrivalPos="682.50" arrivalSpeed="26.86" duration="75.00" routeLength="1495.02" waitingTime="0.00" waitingCount="0" stopTime="0.00" timeLoss="21.34" rerouteNo="0" devices="tripinfo_straightW_15" vType="vehicleW_15" speedFactor="1.07" vaporized=""/>
    <tripinfo id="straightW_11" depart="10.00" departLane="edgeW_O_3" departPos="5.58" departSpeed="0.00" departDelay="0.00" arrival="90.00" arrivalLane="edgeE_I_1" arrivalPos="682.50" arrivalSpeed="25.64" duration="80.00" routeLength="1494.42" waitingTime="5.00" waitingCount="1" stopTime="0.00" timeLoss="22.47" rerouteNo="0" devices="tripinfo_straightW_11" vType="vehicleW_11" speedFactor="0.99" vaporized=""/>
    <tripinfo id="straightE_5" depart="7.00" departLane="edgeE_O_1" departPos="5.15" departSpeed="0.00" departDelay="2.00" arrival="93.00" arrivalLane="edgeW_I_1" arrivalPos="782.50" arrivalSpeed="25.31" duration="86.00" routeLength="1494.85" waitingTime="13.00" waitingCount="1" stopTime="0.00" timeLoss="28.77" rerouteNo="0" devices="tripinfo_straightE_5" vType="vehicleE_5" speedFactor="1.00" vaporized=""/>
    <tripinfo id="straightW_7" depart="7.00" departLane="edgeW_O_3" departPos="4.50" departSpeed="0.00" departDelay="0.00" arrival="93.00" arrivalLane="edgeE_I_1" arrivalPos="682.50" arrivalSpeed="25.41" duration="86.00" routeLength="1495.50" waitingTime="10.00" waitingCount="1" stopTime="0.00" timeLoss="28.73" rerouteNo="0" devices="tripinfo_straightW_7" vType="vehicleW_7" speedFactor="1.00" vaporized=""/>
    <tripinfo id="straightE_10" depart="11.00" departLane="edgeE_O_4" departPos="5.34" departSpeed="0.00" departDelay="2.00" arrival="93.00" arrivalLane="edgeW_I_2" arrivalPos="782.50" arrivalSpeed="27.10" duration="82.00" routeLength="1494.66" waitingTime="6.00" waitingCount="1" stopTime="0.00" timeLoss="27.34" rerouteNo="0" devices="tripinfo_straightE_10" vType="vehicleE_10" speedFactor="1.05" vaporized=""/>
    <tripinfo id="straightW_25" depart="22.00" departLane="edgeW_O_3" departPos="5.62" departSpeed="0.00" departDelay="0.00" arrival="95.00" arrivalLane="edgeE_I_2" arrivalPos="682.50" arrivalSpeed="23.46" duration="73.00" routeLength="1494.38" waitingTime="0.00" waitingCount="0" stopTime="0.00" timeLoss="11.27" rerouteNo="0" devices="tripinfo_straightW_25" vType="vehicleW_25" speedFactor="0.92" vaporized=""/>
    <tripinfo id="straightE_26" depart="22.00" departLane="edgeE_O_1" departPos="4.88" departSpeed="0.00" departDelay="0.00" arrival="95.00" arrivalLane="edgeW_I_3" arrivalPos="782.50" arrivalSpeed="25.94" duration="73.00" routeLength="1495.12" waitingTime="0.00" waitingCount="0" stopTime="0.00" timeLoss="17.67" rerouteNo="0" devices="tripinfo_straightE_26" vType="vehicleE_26" speedFactor="1.03" vaporized=""/>
    <tripinfo id="uturnW_9" depart="9.00" departLane="edgeW_O_4" departPos="4.89" departSpeed="0.00" departDelay="0.00" arrival="98.00" arrivalLane="edgeW_I_4" arrivalPos="782.50" arrivalSpeed="25.93" duration="89.00" routeLength="1564.79" waitingTime="6.00" waitingCount="1" stopTime="0.00" timeLoss="30.24" rerouteNo="0" devices="tripinfo_uturnW_9" vType="vehicleW_9" speedFactor="1.04" vaporized=""/>
    <tripinfo id="straightW_38" depart="29.00" departLane="edgeW_O_4" departPos="4.24" departSpeed="0.00" departDelay="0.00" arrival="98.00" arrivalLane="edgeE_I_3" arrivalPos="682.50" arrivalSpeed="27.69" duration="69.00" routeLength="1495.76" waitingTime="0.00" waitingCount="0" stopTime="0.00" timeLoss="16.24" rerouteNo="0" devices="tripinfo_straightW_38" vType="vehicleW_38" speedFactor="1.08" vaporized=""/>
    <tripinfo id="straightE_4" depart="4.00" departLane="edgeE_O_1" departPos="4.54" departSpeed="0.00" departDelay="0.00" arrival="99.00" arrivalLane="edgeW_I_2" arrivalPos="782.50" arrivalSpeed="23.93" duration="95.00" routeLength="1495.46" waitingTime="13.00" waitingCount="1" stopTime="0.00" timeLoss="33.38" rerouteNo="0" devices="tripinfo_straightE_4" vType="vehicleE_4" speedFactor="0.93" vaporized=""/>
    <tripinfo id="straightE_20" depart="20.00" departLane="edgeE_O_2" departPos="4.62" departSpeed="0.00" departDelay="0.00" arrival="99.00" arrivalLane="edgeW_I_1" arrivalPos="782.50" arrivalSpeed="22.07" duration="79.00" routeLength="1495.38" waitingTime="0.00" waitingCount="0" stopTime="0.00" timeLoss="14.37" rerouteNo="0" devices="tripinfo_straightE_20" vType="vehicleE_20" speedFactor="0.89" vaporized=""/>
    <tripinfo id="straightE_32" depart="26.00" departLane="edgeE_O_2" departPos="4.55" departSpeed="0.00" departDelay="0.00" arrival="100.00" arrivalLane="edgeW_I_3" arrivalPos="782.50" arrivalSpeed="26.25" duration="74.00" routeLength="1495.45" waitingTime="0.00" waitingCount="0" stopTime="0.00" timeLoss="18.60" rerouteNo="0" devices="tripinfo_straightE_32" vType="vehicleE_32" speedFactor="1.04" vaporized=""/>
    <tripinfo id="straightW_39" depart="30.00" departLane="edgeW_O_2" departPos="5.35" departSpeed="0.00" departDelay="0.00" arrival="102.00" arrivalLane="edgeE_I_1" arrivalPos="682.50" arrivalSpeed="22.22" duration="72.00" routeLength="1494.64" waitingTime="0.00" waitingCount="0" stopTime="0.00" timeLoss="7.57" rerouteNo="0" devices="tripinfo_straightW_39" vType="vehicleW_39" speedFactor="0.88" vaporized=""/>
    <tripinfo id="rightW_3" depart="1.00" departLane="edgeW_O_1" departPos="4.61" departSpeed="0.00" departDelay="0.00" arrival="104.00" arrivalLane="edgeS_I_1" arrivalPos="882.50" arrivalSpeed="21.60" duration="103.00" routeLength="1670.55" waitingTime="14.00" waitingCount="1" stopTime="0.00" timeLoss="33.67" rerouteNo="0" devices="tripinfo_rightW_3" vType="vehicleW_3" speedFactor="1.07" vaporized=""/>
    <tripinfo id="uturnW_22" depart="21.00" departLane="edgeW_O_4" departPos="5.41" departSpeed="0.00" departDelay="0.00" arrival="106.00" arrivalLane="edgeW_I_3" arrivalPos="782.50" arrivalSpeed="24.79" duration="85.00" routeLength="1564.27" waitingTime="2.00" waitingCount="1" stopTime="0.00" timeLoss="25.08" rerouteNo="0" devices="tripinfo_uturnW_22" vType="vehicleW_22" speedFactor="1.01" vaporized=""/>
    <tripinfo id="rightE_40" depart="32.00" departLane="edgeE_O_1" departPos="5.45" departSpeed="0.00" departDelay="0.00" arrival="106.00" arrivalLane="edgeN_I_1" arrivalPos="482.50" arrivalSpeed="16.00" duration="74.00" routeLength="1169.71" waitingTime="0.00" waitingCount="0" stopTime="0.00" timeLoss="10.21" rerouteNo="0" devices="tripinfo_rightE_40" vType="vehicleE_40" speedFactor="0.81" vaporized=""/>
    <tripinfo id="straightW_34" depart="27.00" departLane="edgeW_O_1" departPos="4.50" departSpeed="0.00" departDelay="0.00" arrival="108.00" arrivalLane="edgeE_I_2" arrivalPos="682.50" arrivalSpeed="21.59" duration="81.00" routeLength="1495.50" waitingTime="0.00" waitingCount="0" stopTime="0.00" timeLoss="16.61" rerouteNo="0" devices="tripinfo_straightW_34" vType="vehicleW_34" speedFactor="0.89" vaporized=""/>
    <tripinfo id="straightE_35" depart="27.00" departLane="edgeE_O_3" departPos="4.52" departSpeed="0.00" departDelay="0.00" arrival="108.00" arrivalLane="edgeW_I_1" arrivalPos="782.50" arrivalSpeed="23.93" duration="81.00" routeLength="1495.48" waitingTime="0.00" waitingCount="0" stopTime="0.00" timeLoss="20.60" rerouteNo="0" devices="tripinfo_straightE_35" vType="vehicleE_35" speedFactor="0.95" vaporized=""/>
    <tripinfo id="straightW_45" depart="36.00" departLane="edgeW_O_3" departPos="4.60" departSpeed="0.00" departDelay="0.00" arrival="108.00" arrivalLane="edgeE_I_3" arrivalPos="682.50" arrivalSpeed="25.63" duration="72.00" routeLength="1495.40" waitingTime="0.00" waitingCount="0" stopTime="0.00" timeLoss="15.45" rerouteNo="0" devices="tripinfo_straightW_45" vType="vehicleW_45" speedFactor="1.01" vaporized=""/>
    <tripinfo id="straightW_48" depart="40.00" departLane="edgeW_O_2" departPos="5.07" departSpeed="0.00" departDelay="0.00" arrival="113.00" arrivalLane="edgeE_I_1" arrivalPos="682.50" arrivalSpeed="22.10" duration="73.00" routeLength="1494.93" waitingTime="0.00" waitingCount="0" stopTime="0.00" timeLoss="7.91" rerouteNo="0" devices="tripinfo_straightW_48" vType="vehicleW_48" speedFactor="0.88" vaporized=""/>
    <tripinfo id="straightE_54" depart="47.00" departLane="edgeE_O_3" departPos="4.32" departSpeed="0.00" departDelay="0.00" arrival="116.00" arrivalLane="edgeW_I_4" arrivalPos="782.50" arrivalSpeed="29.37" duration="69.00" routeLength="1495.68" waitingTime="0.00" waitingCount="0" stopTime="0.00" timeLoss="19.73" rerouteNo="0" devices="tripinfo_straightE_54" vType="vehicleE_54" speedFactor="1.17" vaporized=""/>
    <tripinfo id="straightE_50" depart="42.00" departLane="edgeE_O_4" departPos="5.50" departSpeed="0.00" departDelay="0.00" arrival="117.00" arrivalLane="edgeW_I_1" arrivalPos="782.50" arrivalSpeed="21.65" duration="75.00" routeLength="1494.50" waitingTime="0.00" waitingCount="0" stopTime="0.00" timeLoss="9.16" rerouteNo="0" devices="tripinfo_straightE_50" vType="vehicleE_50" speedFactor="0.87" vaporized=""/>
    <tripinfo id="straightW_53" depart="47.00" departLane="edgeW_O_2" departPos="4.51" departSpeed="0.00" departDelay="0.00" arrival="118.00" arrivalLane="edgeE_I_1" arrivalPos="682.50" arrivalSpeed="23.10" duration="71.00" routeLength="1495.49" waitingTime="0.00" waitingCount="0" stopTime="0.00" timeLoss="9.08" rerouteNo="0" devices="tripinfo_straightW_53" vType="vehicleW_53" speedFactor="0.92" vaporized=""/>
    <tripinfo id="leftW_12" depart="12.00" departLane="edgeW_O_4" departPos="5.23" departSpeed="0.00" departDelay="1.00" arrival="120.00" arrivalLane="edgeN_I_3" arrivalPos="482.50" arrivalSpeed="17.18" duration="108.00" routeLength="1290.57" waitingTime="25.00" waitingCount="2" stopTime="0.00" timeLoss="45.57" rerouteNo="0" devices="tripinfo_leftW_12" vType="vehicleW_12" speedFactor="0.89" vaporized=""/>
    <tripinfo id="straightW_55" depart="48.00" departLane="edgeW_O_4" departPos="5.52" departSpeed="0.00" departDelay="0.00" arrival="121.00" arrivalLane="edgeE_I_1" arrivalPos="682.50" arrivalSpeed="21.71" duration="73.00" routeLength="1494.48" waitingTime="0.00" waitingCount="0" stopTime="0.00" timeLoss="7.10" rerouteNo="0" devices="tripinfo_straightW_55" vType="vehicleW_55" speedFactor="0.87" vaporized=""/>
    <tripinfo id="straightW_60" depart="57.00" departLane="edgeW_O_2" departPos="5.04" departSpeed="0.00" departDelay="0.00" arrival="122.00" arrivalLane="edgeE_I_3" arrivalPos="682.50" arrivalSpeed="23.39" duration="65.00" routeLength="1494.96" waitingTime="0.00" waitingCount="0" stopTime="0.00" timeLoss="6.09" rerouteNo="0" devices="tripinfo_straightW_60" vType="vehicleW_60" speedFactor="0.97" vaporized=""/>
    <tripinfo id="straightW_57" depart="53.00" departLane="edgeW_O_3" departPos="5.46" departSpeed="0.00" departDelay="0.00" arrival="125.00" arrivalLane="edgeE_I_3" arrivalPos="682.50" arrivalSpeed="24.69" duration="72.00" routeLength="1494.54" waitingTime="0.00" waitingCount="0" stopTime="0.00" timeLoss="14.30" rerouteNo="0" devices="tripinfo_straightW_57" vType="vehicleW_57" speedFactor="1.00" vaporized=""/>
    <tripinfo id="leftW_41" depart="34.00" departLane="edgeW_O_4" departPos="5.31" departSpeed="0.00" departDelay="0.00" arrival="126.00" arrivalLane="edgeN_I_4" arrivalPos="482.50" arrivalSpeed="18.94" duration="92.00" routeLength="1290.49" waitingTime="14.00" waitingCount="2" stopTime="0.00" timeLoss="34.12" rerouteNo="0" devices="tripinfo_leftW_41" vType="vehicleW_41" speedFactor="0.97" vaporized=""/>
    <tripinfo id="rightE_64" depart="60.00" departLane="edgeE_O_1" departPos="5.09" departSpeed="0.00" departDelay="0.00" arrival="126.00" arrivalLane="edgeN_I_1" arrivalPos="482.50" arrivalSpeed="16.95" duration="66.00" routeLength="1170.07" waitingTime="0.00" waitingCount="0" stopTime="0.00" timeLoss="9.81" rerouteNo="0" devices="tripinfo_rightE_64" vType="vehicleE_64" speedFactor="0.91" vaporized=""/>
    <tripinfo id="straightW_56" depart="51.00" departLane="edgeW_O_2" departPos="4.70" departSpeed="0.00" departDelay="0.00" arrival="128.00" arrivalLane="edgeE_I_2" arrivalPos="682.50" arrivalSpeed="24.18" duration="77.00" routeLength="1495.30" waitingTime="0.00" waitingCount="0" stopTime="0.00" timeLoss="18.33" rerouteNo="0" devices="tripinfo_straightW_56" vType="vehicleW_56" speedFactor="0.98" vaporized=""/>
    <tripinfo id="leftW_58" depart="55.00" departLane="edgeW_O_4" departPos="4.94" departSpeed="0.00" departDelay="0.00" arrival="128.00" arrivalLane="edgeN_I_4" arrivalPos="482.50" arrivalSpeed="18.69" duration="73.00" routeLength="1290.86" waitingTime="0.00" waitingCount="0" stopTime="0.00" timeLoss="16.17" rerouteNo="0" devices="tripinfo_leftW_58" vType="vehicleW_58" speedFactor="0.98" vaporized=""/>
    <tripinfo id="leftE_1" depart="0.00" departLane="edgeE_O_4" departPos="4.45" departSpeed="0.00" departDelay="0.00" arrival="131.00" arrivalLane="edgeS_I_2" arrivalPos="882.50" arrivalSpeed="20.18" duration="131.00" routeLength="1591.35" waitingTime="42.00" waitingCount="2" stopTime="0.00" timeLoss="60.96" rerouteNo="0" devices="tripinfo_leftE_1" vType="vehicleE_1" speedFactor="1.03" vaporized=""/>
    <tripinfo id="straightW_62" depart="58.00" departLane="edgeW_O_3" departPos="5.40" departSpeed="0.00" departDelay="0.00" arrival="132.00" arrivalLane="edgeE_I_3" arrivalPos="682.50" arrivalSpeed="26.54" duration="74.00" routeLength="1494.60" waitingTime="0.00" waitingCount="0" stopTime="0.00" timeLoss="18.66" rerouteNo="0" devices="tripinfo_straightW_62" vType="vehicleW_62" speedFactor="1.04" vaporized=""/>
    <tripinfo id="straightW_66" depart="64.00" departLane="edgeW_O_3" departPos="4.64" departSpeed="0.00" departDelay="0.00" arrival="133.00" arrivalLane="edgeE_I_3" arrivalPos="682.50" arrivalSpeed="26.54" duration="69.00" routeLength="1495.36" waitingTime="0.00" waitingCount="0" stopTime="0.00" timeLoss="15.93" rerouteNo="0" devices="tripinfo_straightW_66" vType="vehicleW_66" speedFactor="1.07" vaporized=""/>
    <tripinfo id="straightW_75" depart="81.00" departLane="edgeW_O_3" departPos="4.57" departSpeed="0.00" departDelay="0.00" arrival="141.00" arrivalLane="edgeE_I_2" arrivalPos="682.50" arrivalSpeed="25.90" duration="60.00" routeLength="1495.43" waitingTime="0.00" waitingCount="0" stopTime="0.00" timeLoss="6.65" rerouteNo="0" devices="tripinfo_straightW_75" vType="vehicleW_75" speedFactor="1.07" vaporized=""/>
    <tripinfo id="straightW_73" depart="77.00" departLane="edgeW_O_1" departPos="5.13" departSpeed="0.00" departDelay="0.00" arrival="143.00" arrivalLane="edgeE_I_1" arrivalPos="682.50" arrivalSpeed="25.00" duration="66.00" routeLength="1494.87" waitingTime="0.00" waitingCount="0" stopTime="0.00" timeLoss="7.23" rerouteNo="0" devices="tripinfo_straightW_73" vType="vehicleW_73" speedFactor="0.97" vaporized=""/>
    <tripinfo id="straightE_74" depart="77.00" departLane="edgeE_O_3" departPos="5.18" departSpeed="0.00" departDelay="0.00" arrival="146.00" arrivalLane="edgeW_I_1" arrivalPos="782.50" arrivalSpeed="22.84" duration="69.00" routeLength="1494.82" waitingTime="0.00" waitingCount="0" stopTime="0.00" timeLoss="6.45" rerouteNo="0" devices="tripinfo_straightE_74" vType="vehicleE_74" speedFactor="0.92" vaporized=""/>
    <tripinfo id="straightW_80" depart="89.00" departLane="edgeW_O_2" departPos="5.28" departSpeed="0.00" departDelay="0.00" arrival="146.00" arrivalLane="edgeE_I_4" arrivalPos="682.50" arrivalSpeed="29.26" duration="57.00" routeLength="1494.72" waitingTime="0.00" waitingCount="0" stopTime="0.00" timeLoss="7.07" rerouteNo="0" devices="tripinfo_straightW_80" vType="vehicleW_80" speedFactor="1.16" vaporized=""/>
    <tripinfo id="straightW_85" depart="92.00" departLane="edgeW_O_1" departPos="4.74" departSpeed="0.00" departDelay="0.00" arrival="148.00" arrivalLane="edgeE_I_4" arrivalPos="682.50" arrivalSpeed="29.32" duration="56.00" routeLength="1495.26" waitingTime="0.00" waitingCount="0" stopTime="0.00" timeLoss="6.92" rerouteNo="0" devices="tripinfo_straightW_85" vType="vehicleW_85" speedFactor="1.18" vaporized=""/>
    <tripinfo id="leftW_82" depart="90.00" departLane="edgeW_O_4" departPos="4.73" departSpeed="0.00" departDelay="0.00" arrival="151.00" arrivalLane="edgeN_I_4" arrivalPos="482.50" arrivalSpeed="22.69" duration="61.00" routeLength="1291.07" waitingTime="0.00" waitingCount="0" stopTime="0.00" timeLoss="12.71" rerouteNo="0" devices="tripinfo_leftW_82" vType="vehicleW_82" speedFactor="1.16" vaporized=""/>
    <tripinfo id="straightW_76" depart="84.00" departLane="edgeW_O_1" departPos="5.15" departSpeed="0.00" departDelay="0.00" arrival="156.00" arrivalLane="edgeE_I_1" arrivalPos="682.50" arrivalSpeed="21.50" duration="72.00" routeLength="1494.85" waitingTime="0.00" waitingCount="0" stopTime="0.00" timeLoss="6.61" rerouteNo="0" devices="tripinfo_straightW_76" vType="vehicleW_76" speedFactor="0.88" vaporized=""/>
    <tripinfo id="straightW_78" depart="87.00" departLane="edgeW_O_4" departPos="4.73" departSpeed="0.00" departDelay="0.00" arrival="159.00" arrivalLane="edgeE_I_2" arrivalPos="682.50" arrivalSpeed="21.91" duration="72.00" routeLength="1495.27" waitingTime="0.00" waitingCount="0" stopTime="0.00" timeLoss="7.54" rerouteNo="0" devices="tripinfo_straightW_78" vType="vehicleW_78" speedFactor="0.89" vaporized=""/>
    <tripinfo id="straightW_79" depart="88.00" departLane="edgeW_O_1" departPos="5.63" departSpeed="0.00" departDelay="0.00" arrival="159.00" arrivalLane="edgeE_I_1" arrivalPos="682.50" arrivalSpeed="22.61" duration="71.00" routeLength="1494.37" waitingTime="0.00" waitingCount="0" stopTime="0.00" timeLoss="9.00" rerouteNo="0" devices="tripinfo_straightW_79" vType="vehicleW_79" speedFactor="0.92" vaporized=""/>
    <tripinfo id="leftE_8" depart="8.00" departLane="edgeE_O_4" departPos="5.27" departSpeed="0.00" departDelay="0.00" arrival="161.00" arrivalLane="edgeS_I_1" arrivalPos="882.50" arrivalSpeed="17.88" duration="153.00" routeLength="1590.53" waitingTime="51.00" waitingCount="3" stopTime="0.00" timeLoss="74.27" rerouteNo="0" devices="tripinfo_leftE_8" vType="vehicleE_8" speedFactor="0.91" vaporized=""/>
    <tripinfo id="leftE_28" depart="23.00" departLane="edgeE_O_4" departPos="5.13" departSpeed="0.00" departDelay="0.00" arrival="162.00" arrivalLane="edgeS_I_3" arrivalPos="882.50" arrivalSpeed="20.53" duration="139.00" routeLength="1590.67" waitingTime="45.00" waitingCount="4" stopTime="0.00" timeLoss="72.76" rerouteNo="0" devices="tripinfo_leftE_28" vType="vehicleE_28" speedFactor="1.08" vaporized=""/>
    <tripinfo id="straightW_89" depart="100.00" departLane="edgeW_O_1" departPos="5.62" departSpeed="0.00" departDelay="2.00" arrival="162.00" arrivalLane="edgeE_I_2" arrivalPos="682.50" arrivalSpeed="27.00" duration="62.00" routeLength="1494.38" waitingTime="0.00" waitingCount="0" stopTime="0.00" timeLoss="7.77" rerouteNo="0" devices="tripinfo_straightW_89" vType="vehicleW_89" speedFactor="1.05" vaporized=""/>
    <tripinfo id="straightW_77" depart="85.00" departLane="edgeW_O_2" departPos="4.83" departSpeed="0.00" departDelay="0.00" arrival="163.00" arrivalLane="edgeE_I_1" arrivalPos="682.50" arrivalSpeed="19.76" duration="78.00" routeLength="1495.17" waitingTime="0.00" waitingCount="0" stopTime="0.00" timeLoss="7.36" rerouteNo="0" devices="tripinfo_straightW_77" vType="vehicleW_77" speedFactor="0.81" vaporized=""/>
    <tripinfo id="straightW_87" depart="95.00" departLane="edgeW_O_1" departPos="4.99" departSpeed="0.00" departDelay="1.00" arrival="164.00" arrivalLane="edgeE_I_2" arrivalPos="682.50" arrivalSpeed="24.53" duration="69.00" routeLength="1495.01" waitingTime="0.00" waitingCount="0" stopTime="0.00" timeLoss="9.38" rerouteNo="0" devices="tripinfo_straightW_87" vType="vehicleW_87" speedFactor="0.96" vaporized=""/>
    <tripinfo id="straightW_92" depart="101.00" departLane="edgeW_O_4" departPos="4.54" departSpeed="0.00" departDelay="0.00" arrival="166.00" arrivalLane="edgeE_I_3" arrivalPos="682.50" arrivalSpeed="24.97" duration="65.00" routeLength="1495.46" waitingTime="0.00" waitingCount="0" stopTime="0.00" timeLoss="7.23" rerouteNo="0" devices="tripinfo_straightW_92" vType="vehicleW_92" speedFactor="0.98" vaporized=""/>
    <tripinfo id="straightW_94" depart="103.00" departLane="edgeW_O_4" departPos="4.81" departSpeed="0.00" departDelay="1.00" arrival="166.00" arrivalLane="edgeE_I_4" arrivalPos="682.50" arrivalSpeed="26.53" duration="63.00" routeLength="1495.19" waitingTime="1.00" waitingCount="1" stopTime="0.00" timeLoss="7.88" rerouteNo="0" devices="tripinfo_straightW_94" vType="vehicleW_94" speedFactor="1.05" vaporized=""/>
    <tripinfo id="straightW_97" depart="106.00" departLane="edgeW_O_4" departPos="5.17" departSpeed="0.00" departDelay="1.00" arrival="169.00" arrivalLane="edgeE_I_4" arrivalPos="682.50" arrivalSpeed="31.53" duration="63.00" routeLength="1494.83" waitingTime="0.00" waitingCount="0" stopTime="0.00" timeLoss="15.93" rerouteNo="0" devices="tripinfo_straightW_97" vType="vehicleW_97" speedFactor="1.23" vaporized=""/>
    <tripinfo id="straightW_99" depart="107.00" departLane="edgeW_O_3" departPos="5.00" departSpeed="0.00" departDelay="0.00" arrival="169.00" arrivalLane="edgeE_I_2" arrivalPos="682.50" arrivalSpeed="26.02" duration="62.00" routeLength="1495.00" waitingTime="0.00" waitingCount="0" stopTime="0.00" timeLoss="8.04" rerouteNo="0" devices="tripinfo_straightW_99" vType="vehicleW_99" speedFactor="1.07" vaporized=""/>
    <tripinfo id="straightE_96" depart="104.00" departLane="edgeE_O_1" departPos="4.65" departSpeed="0.00" departDelay="0.00" arrival="171.00" arrivalLane="edgeW_I_1" arrivalPos="782.50" arrivalSpeed="23.91" duration="67.00" routeLength="1495.35" waitingTime="0.00" waitingCount="0" stopTime="0.00" timeLoss="7.62" rerouteNo="0" devices="tripinfo_straightE_96" vType="vehicleE_96" speedFactor="0.97" vaporized=""/>
    <tripinfo id="straightE_103" depart="112.00" departLane="edgeE_O_2" departPos="4.11" departSpeed="0.00" departDelay="0.00" arrival="171.00" arrivalLane="edgeW_I_2" arrivalPos="782.50" arrivalSpeed="28.15" duration="59.00" routeLength="1495.88" waitingTime="0.00" waitingCount="0" stopTime="0.00" timeLoss="6.16" rerouteNo="0" devices="tripinfo_straightE_103" vType="vehicleE_103" speedFactor="1.09" vaporized=""/>
    <tripinfo id="leftE_69" depart="72.00" departLane="edgeE_O_4" departPos="4.16" departSpeed="0.00" departDelay="0.00" arrival="173.00" arrivalLane="edgeS_I_3" arrivalPos="882.50" arrivalSpeed="23.07" duration="101.00" routeLength="1591.64" waitingTime="16.00" waitingCount="3" stopTime="0.00" timeLoss="38.86" rerouteNo="0" devices="tripinfo_leftE_69" vType="vehicleE_69" speedFactor="1.16" vaporized=""/>
    <tripinfo id="straightE_105" depart="114.00" departLane="edgeE_O_4" departPos="5.15" departSpeed="0.00" departDelay="0.00" arrival="180.00" arrivalLane="edgeW_I_1" arrivalPos="782.50" arrivalSpeed="24.03" duration="66.00" routeLength="1494.85" waitingTime="0.00" waitingCount="0" stopTime="0.00" timeLoss="5.75" rerouteNo="0" devices="tripinfo_straightE_105" vType="vehicleE_105" speedFactor="0.95" vaporized=""/>
    <tripinfo id="straightW_98" depart="106.00" departLane="edgeW_O_2" departPos="4.42" departSpeed="0.00" departDelay="0.00" arrival="184.00" arrivalLane="edgeE_I_1" arrivalPos="682.50" arrivalSpeed="21.02" duration="78.00" routeLength="1495.58" waitingTime="0.00" waitingCount="0" stopTime="0.00" timeLoss="7.61" rerouteNo="0" devices="tripinfo_straightW_98" vType="vehicleW_98" speedFactor="0.81" vaporized=""/>
    <tripinfo id="leftW_107" depart="118.00" departLane="edgeW_O_4" departPos="5.43" departSpeed="0.00" departDelay="0.00" arrival="185.00" arrivalLane="edgeN_I_4" arrivalPos="482.50" arrivalSpeed="19.42" duration="67.00" routeLength="1290.37" waitingTime="0.00" waitingCount="0" stopTime="0.00" timeLoss="10.23" rerouteNo="0" devices="tripinfo_leftW_107" vType="vehicleW_107" speedFactor="0.99" vaporized=""/>
    <tripinfo id="straightE_108" depart="118.00" departLane="edgeE_O_2" departPos="5.66" departSpeed="0.00" departDelay="0.00" arrival="185.00" arrivalLane="edgeW_I_3" arrivalPos="782.50" arrivalSpeed="28.67" duration="67.00" routeLength="1494.34" waitingTime="0.00" waitingCount="0" stopTime="0.00" timeLoss="16.63" rerouteNo="0" devices="tripinfo_straightE_108" vType="vehicleE_108" speedFactor="1.13" vaporized=""/>
    <tripinfo id="leftE_71" depart="75.00" departLane="edgeE_O_4" departPos="4.86" departSpeed="0.00" departDelay="2.00" arrival="189.00" arrivalLane="edgeS_I_3" arrivalPos="882.50" arrivalSpeed="22.14" duration="114.00" routeLength="1590.94" waitingTime="20.00" waitingCount="4" stopTime="0.00" timeLoss="49.21" rerouteNo="0" devices="tripinfo_leftE_71" vType="vehicleE_71" speedFactor="1.11" vaporized=""/>
    <tripinfo id="rightW_88" depart="98.00" departLane="edgeW_O_1" departPos="4.28" departSpeed="0.00" departDelay="2.00" arrival="191.00" arrivalLane="edgeS_I_1" arrivalPos="882.50" arrivalSpeed="17.12" duration="93.00" routeLength="1670.88" waitingTime="0.00" waitingCount="0" stopTime="0.00" timeLoss="11.24" rerouteNo="0" devices="tripinfo_rightW_88" vType="vehicleW_88" speedFactor="0.91" vaporized=""/>
    <tripinfo id="uturnN_42" depart="35.00" departLane="edgeN_O_4" departPos="4.36" departSpeed="0.00" departDelay="0.00" arrival="198.00" arrivalLane="edgeN_I_4" arrivalPos="482.50" arrivalSpeed="21.74" duration="163.00" routeLength="965.32" waitingTime="108.00" waitingCount="1" stopTime="0.00" timeLoss="120.72" rerouteNo="0" devices="tripinfo_uturnN_42" vType="vehicleN_42" speedFactor="1.15" vaporized=""/>
    <tripinfo id="uturnN_120" depart="130.00" departLane="edgeN_O_4" departPos="5.40" departSpeed="0.00" departDelay="0.00" arrival="204.00" arrivalLane="edgeN_I_3" arrivalPos="482.50" arrivalSpeed="19.67" duration="74.00" routeLength="964.28" waitingTime="10.00" waitingCount="1" stopTime="0.00" timeLoss="25.96" rerouteNo="0" devices="tripinfo_uturnN_120" vType="vehicleN_120" speedFactor="1.01" vaporized=""/>
    <tripinfo id="leftE_90" depart="100.00" departLane="edgeE_O_4" departPos="5.08" departSpeed="0.00" departDelay="0.00" arrival="213.00" arrivalLane="edgeS_I_1" arrivalPos="882.50" arrivalSpeed="15.39" duration="113.00" routeLength="1590.72" waitingTime="7.00" waitingCount="2" stopTime="0.00" timeLoss="22.08" rerouteNo="0" devices="tripinfo_leftE_90" vType="vehicleE_90" speedFactor="0.79" vaporized=""/>
    <tripinfo id="uturnS_63" depart="59.00" departLane="edgeS_O_4" departPos="5.33" departSpeed="0.00" departDelay="0.00" arrival="214.00" arrivalLane="edgeS_I_3" arrivalPos="882.50" arrivalSpeed="23.97" duration="155.00" routeLength="1764.35" waitingTime="68.00" waitingCount="1" stopTime="0.00" timeLoss="82.95" rerouteNo="0" devices="tripinfo_uturnS_63" vType="vehicleS_63" speedFactor="1.19" vaporized=""/>
    <tripinfo id="uturnS_101" depart="110.00" departLane="edgeS_O_4" departPos="4.30" departSpeed="0.00" departDelay="0.00" arrival="228.00" arrivalLane="edgeS_I_1" arrivalPos="882.50" arrivalSpeed="18.67" duration="118.00" routeLength="1765.38" waitingTime="11.00" waitingCount="1" stopTime="0.00" timeLoss="27.09" rerouteNo="0" devices="tripinfo_uturnS_101" vType="vehicleS_101" speedFactor="0.95" vaporized=""/>
    <tripinfo id="straightS_16" depart="15.00" departLane="edgeS_O_3" departPos="5.59" departSpeed="0.00" departDelay="1.00" arrival="229.00" arrivalLane="edgeN_I_3" arrivalPos="482.50" arrivalSpeed="25.06" duration="214.00" routeLength="1394.41" waitingTime="144.00" waitingCount="1" stopTime="0.00" timeLoss="160.60" rerouteNo="0" devices="tripinfo_straightS_16" vType="vehicleS_16" speedFactor="1.26" vaporized=""/>