<?xml version="1.0" encoding="UTF-8"?>

<!-- generated on 2021-10-25 03:37:52 by Eclipse SUMO GUI Version 1.10.0
<configuration xmlns:xsi="http://www.w3.org/2001/XMLSchema-instance" xsi:noNamespaceSchemaLocation="http://sumo.dlr.de/xsd/sumoConfiguration.xsd">

    <input>
        <net-file value="data/cross.net.xml"/>
        <route-files value="data/cross.rou.xml"/>
        <additional-files value="data/cross.tls.xml"/>
    </input>

    <output>
        <tripinfo-output value="data/tripinfo.xml"/>
        <tripinfo-output.write-unfinished value="true"/>
    </output>

    <time>
        <begin value="0"/>
        <step-length value="1"/>
    </time>

    <processing>
        <threads value="5"/>
        <time-to-teleport value="-1"/>
    </processing>

    <report>
        <verbose value="true"/>
        <no-warnings value="true"/>
        <no-step-log value="true"/>
    </report>

    <traci_server>
        <remote-port value="52351"/>
    </traci_server>

    <gui_only>
        <gui-settings-file value="data/viewsettings.xml"/>
        <tracker-interval value="1"/>
    </gui_only>

</configuration>
-->

<tripinfos xmlns:xsi="http://www.w3.org/2001/XMLSchema-instance" xsi:noNamespaceSchemaLocation="http://sumo.dlr.de/xsd/tripinfo_file.xsd">
    <personinfo id="pOppE.0" depart="0.00" type="DEFAULT_PEDTYPE">
        <walk depart="-0.00" departPos="785.70" arrival="-1" arrivalPos="292.85" duration="-1" routeLength="1107.15" timeLoss="0.00" maxSpeed="1.48"/>
    </personinfo>
    <personinfo id="pOppE.1" depart="20.85" type="DEFAULT_PEDTYPE">
        <walk depart="-0.00" departPos="785.70" arrival="-1" arrivalPos="292.85" duration="-1" routeLength="1107.15" timeLoss="0.00" maxSpeed="1.48"/>
    </personinfo>
    <personinfo id="pOppE.10" depart="208.48" type="DEFAULT_PEDTYPE">
        <walk depart="-0.00" departPos="785.70" arrival="-1" arrivalPos="292.85" duration="-1" routeLength="1107.15" timeLoss="0.00" maxSpeed="1.48"/>
    </personinfo>
    <personinfo id="pOppE.100" depart="2084.80" type="DEFAULT_PEDTYPE">
        <walk depart="-0.00" departPos="785.70" arrival="-1" arrivalPos="292.85" duration="-1" routeLength="1107.15" timeLoss="0.00" maxSpeed="1.48"/>
    </personinfo>
    <personinfo id="pOppE.101" depart="2105.65" type="DEFAULT_PEDTYPE">
        <walk depart="-0.00" departPos="785.70" arrival="-1" arrivalPos="292.85" duration="-1" routeLength="1107.15" timeLoss="0.00" maxSpeed="1.48"/>
    </personinfo>
    <personinfo id="pOppE.102" depart="2126.50" type="DEFAULT_PEDTYPE">
        <walk depart="-0.00" departPos="785.70" arrival="-1" arrivalPos="292.85" duration="-1" routeLength="1107.15" timeLoss="0.00" maxSpeed="1.48"/>
    </personinfo>
    <personinfo id="pOppE.103" depart="2147.34" type="DEFAULT_PEDTYPE">
        <walk depart="-0.00" departPos="785.70" arrival="-1" arrivalPos="292.85" duration="-1" routeLength="1107.15" timeLoss="0.00" maxSpeed="1.48"/>
    </personinfo>
    <personinfo id="pOppE.104" depart="2168.19" type="DEFAULT_PEDTYPE">
        <walk depart="-0.00" departPos="785.70" arrival="-1" arrivalPos="292.85" duration="-1" routeLength="1107.15" timeLoss="0.00" maxSpeed="1.48"/>
    </personinfo>
    <personinfo id="pOppE.105" depart="2189.04" type="DEFAULT_PEDTYPE">
        <walk depart="-0.00" departPos="785.70" arrival="-1" arrivalPos="292.85" duration="-1" routeLength="1107.15" timeLoss="0.00" maxSpeed="1.48"/>
    </personinfo>
    <personinfo id="pOppE.106" depart="2209.89" type="DEFAULT_PEDTYPE">
        <walk depart="-0.00" departPos="785.70" arrival="-1" arrivalPos="292.85" duration="-1" routeLength="1107.15" timeLoss="0.00" maxSpeed="1.48"/>
    </personinfo>
    <personinfo id="pOppE.107" depart="2230.74" type="DEFAULT_PEDTYPE">
        <walk depart="-0.00" departPos="785.70" arrival="-1" arrivalPos="292.85" duration="-1" routeLength="1107.15" timeLoss="0.00" maxSpeed="1.48"/>
    </personinfo>
    <personinfo id="pOppE.108" depart="2251.58" type="DEFAULT_PEDTYPE">
        <walk depart="-0.00" departPos="785.70" arrival="-1" arrivalPos="292.85" duration="-1" routeLength="1107.15" timeLoss="0.00" maxSpeed="1.48"/>
    </personinfo>
    <personinfo id="pOppE.109" depart="2272.43" type="DEFAULT_PEDTYPE">
        <walk depart="-0.00" departPos="785.70" arrival="-1" arrivalPos="292.85" duration="-1" routeLength="1107.15" timeLoss="0.00" maxSpeed="1.48"/>
    </personinfo>
    <personinfo id="pOppE.11" depart="229.33" type="DEFAULT_PEDTYPE">
        <walk depart="-0.00" departPos="785.70" arrival="-1" arrivalPos="292.85" duration="-1" routeLength="1107.15" timeLoss="0.00" maxSpeed="1.48"/>
    </personinfo>
    <personinfo id="pOppE.110" depart="2293.28" type="DEFAULT_PEDTYPE">
        <walk depart="-0.00" departPos="785.70" arrival="-1" arrivalPos="292.85" duration="-1" routeLength="1107.15" timeLoss="0.00" maxSpeed="1.48"/>
    </personinfo>
    <personinfo id="pOppE.111" depart="2314.13" type="DEFAULT_PEDTYPE">
        <walk depart="-0.00" departPos="785.70" arrival="-1" arrivalPos="292.85" duration="-1" routeLength="1107.15" timeLoss="0.00" maxSpeed="1.48"/>
    </personinfo>
    <personinfo id="pOppE.112" depart="2334.98" type="DEFAULT_PEDTYPE">
        <walk depart="-0.00" departPos="785.70" arrival="-1" arrivalPos="292.85" duration="-1" routeLength="1107.15" timeLoss="0.00" maxSpeed="1.48"/>
    </personinfo>
    <personinfo id="pOppE.113" depart="2355.82" type="DEFAULT_PEDTYPE">
        <walk depart="-0.00" departPos="785.70" arrival="-1" arrivalPos="292.85" duration="-1" routeLength="1107.15" timeLoss="0.00" maxSpeed="1.48"/>
    </personinfo>
    <personinfo id="pOppE.114" depart="2376.67" type="DEFAULT_PEDTYPE">
        <walk depart="-0.00" departPos="785.70" arrival="-1" arrivalPos="292.85" duration="-1" routeLength="1107.15" timeLoss="0.00" maxSpeed="1.48"/>
    </personinfo>
    <personinfo id="pOppE.115" depart="2397.52" type="DEFAULT_PEDTYPE">
        <walk depart="-0.00" departPos="785.70" arrival="-1" arrivalPos="292.85" duration="-1" routeLength="1107.15" timeLoss="0.00" maxSpeed="1.48"/>
    </personinfo>
    <personinfo id="pOppE.116" depart="2418.37" type="DEFAULT_PEDTYPE">
        <walk depart="-0.00" departPos="785.70" arrival="-1" arrivalPos="292.85" duration="-1" routeLength="1107.15" timeLoss="0.00" maxSpeed="1.48"/>
    </personinfo>
    <personinfo id="pOppE.117" depart="2439.22" type="DEFAULT_PEDTYPE">
        <walk depart="-0.00" departPos="785.70" arrival="-1" arrivalPos="292.85" duration="-1" routeLength="1107.15" timeLoss="0.00" maxSpeed="1.48"/>
    </personinfo>
    <personinfo id="pOppE.118" depart="2460.06" type="DEFAULT_PEDTYPE">
        <walk depart="-0.00" departPos="785.70" arrival="-1" arrivalPos="292.85" duration="-1" routeLength="1107.15" timeLoss="0.00" maxSpeed="1.48"/>
    </personinfo>
    <personinfo id="pOppE.119" depart="2480.91" type="DEFAULT_PEDTYPE">
        <walk depart="-0.00" departPos="785.70" arrival="-1" arrivalPos="292.85" duration="-1" routeLength="1107.15" timeLoss="0.00" maxSpeed="1.48"/>
    </personinfo>
    <personinfo id="pOppE.12" depart="250.18" type="DEFAULT_PEDTYPE">
        <walk depart="-0.00" departPos="785.70" arrival="-1" arrivalPos="292.85" duration="-1" routeLength="1107.15" timeLoss="0.00" maxSpeed="1.48"/>
    </personinfo>
    <personinfo id="pOppE.120" depart="2501.76" type="DEFAULT_PEDTYPE">
        <walk depart="-0.00" departPos="785.70" arrival="-1" arrivalPos="292.85" duration="-1" routeLength="1107.15" timeLoss="0.00" maxSpeed="1.48"/>
    </personinfo>
    <personinfo id="pOppE.121" depart="2522.61" type="DEFAULT_PEDTYPE">
        <walk depart="-0.00" departPos="785.70" arrival="-1" arrivalPos="292.85" duration="-1" routeLength="1107.15" timeLoss="0.00" maxSpeed="1.48"/>
    </personinfo>
    <personinfo id="pOppE.122" depart="2543.46" type="DEFAULT_PEDTYPE">
        <walk depart="-0.00" departPos="785.70" arrival="-1" arrivalPos="292.85" duration="-1" routeLength="1107.15" timeLoss="0.00" maxSpeed="1.48"/>
    </personinfo>
    <personinfo id="pOppE.123" depart="2564.30" type="DEFAULT_PEDTYPE">
        <walk depart="-0.00" departPos="785.70" arrival="-1" arrivalPos="292.85" duration="-1" routeLength="1107.15" timeLoss="0.00" maxSpeed="1.48"/>
    </personinfo>
    <personinfo id="pOppE.124" depart="2585.15" type="DEFAULT_PEDTYPE">
        <walk depart="-0.00" departPos="785.70" arrival="-1" arrivalPos="292.85" duration="-1" routeLength="1107.15" timeLoss="0.00" maxSpeed="1.48"/>
    </personinfo>
    <personinfo id="pOppE.125" depart="2606.00" type="DEFAULT_PEDTYPE">
        <walk depart="-0.00" departPos="785.70" arrival="-1" arrivalPos="292.85" duration="-1" routeLength="1107.15" timeLoss="0.00" maxSpeed="1.48"/>
    </personinfo>
    <personinfo id="pOppE.126" depart="2626.85" type="DEFAULT_PEDTYPE">
        <walk depart="-0.00" departPos="785.70" arrival="-1" arrivalPos="292.85" duration="-1" routeLength="1107.15" timeLoss="0.00" maxSpeed="1.48"/>
    </personinfo>
    <personinfo id="pOppE.127" depart="2647.70" type="DEFAULT_PEDTYPE">
        <walk depart="-0.00" departPos="785.70" arrival="-1" arrivalPos="292.85" duration="-1" routeLength="1107.15" timeLoss="0.00" maxSpeed="1.48"/>
    </personinfo>
    <personinfo id="pOppE.128" depart="2668.54" type="DEFAULT_PEDTYPE">
        <walk depart="-0.00" departPos="785.70" arrival="-1" arrivalPos="292.85" duration="-1" routeLength="1107.15" timeLoss="0.00" maxSpeed="1.48"/>
    </personinfo>
    <personinfo id="pOppE.129" depart="2689.39" type="DEFAULT_PEDTYPE">
        <walk depart="-0.00" departPos="785.70" arrival="-1" arrivalPos="292.85" duration="-1" routeLength="1107.15" timeLoss="0.00" maxSpeed="1.48"/>
    </personinfo>
    <personinfo id="pOppE.13" depart="271.02" type="DEFAULT_PEDTYPE">
        <walk depart="-0.00" departPos="785.70" arrival="-1" arrivalPos="292.85" duration="-1" routeLength="1107.15" timeLoss="0.00" maxSpeed="1.48"/>
    </personinfo>
    <personinfo id="pOppE.130" depart="2710.24" type="DEFAULT_PEDTYPE">
        <walk depart="-0.00" departPos="785.70" arrival="-1" arrivalPos="292.85" duration="-1" routeLength="1107.15" timeLoss="0.00" maxSpeed="1.48"/>
    </personinfo>
    <personinfo id="pOppE.131" depart="2731.09" type="DEFAULT_PEDTYPE">
        <walk depart="-0.00" departPos="785.70" arrival="-1" arrivalPos="292.85" duration="-1" routeLength="1107.15" timeLoss="0.00" maxSpeed="1.48"/>
    </personinfo>
    <personinfo id="pOppE.132" depart="2751.94" type="DEFAULT_PEDTYPE">
        <walk depart="-0.00" departPos="785.70" arrival="-1" arrivalPos="292.85" duration="-1" routeLength="1107.15" timeLoss="0.00" maxSpeed="1.48"/>
    </personinfo>
    <personinfo id="pOppE.133" depart="2772.78" type="DEFAULT_PEDTYPE">
        <walk depart="-0.00" departPos="785.70" arrival="-1" arrivalPos="292.85" duration="-1" routeLength="1107.15" timeLoss="0.00" maxSpeed="1.48"/>
    </personinfo>
    <personinfo id="pOppE.134" depart="2793.63" type="DEFAULT_PEDTYPE">
        <walk depart="-0.00" departPos="785.70" arrival="-1" arrivalPos="292.85" duration="-1" routeLength="1107.15" timeLoss="0.00" maxSpeed="1.48"/>
    </personinfo>
    <personinfo id="pOppE.135" depart="2814.48" type="DEFAULT_PEDTYPE">
        <walk depart="-0.00" departPos="785.70" arrival="-1" arrivalPos="292.85" duration="-1" routeLength="1107.15" timeLoss="0.00" maxSpeed="1.48"/>
    </personinfo>
    <personinfo id="pOppE.136" depart="2835.33" type="DEFAULT_PEDTYPE">
        <walk depart="-0.00" departPos="785.70" arrival="-1" arrivalPos="292.85" duration="-1" routeLength="1107.15" timeLoss="0.00" maxSpeed="1.48"/>
    </personinfo>
    <personinfo id="pOppE.137" depart="2856.18" type="DEFAULT_PEDTYPE">
        <walk depart="-0.00" departPos="785.70" arrival="-1" arrivalPos="292.85" duration="-1" routeLength="1107.15" timeLoss="0.00" maxSpeed="1.48"/>
    </personinfo>
    <personinfo id="pOppE.138" depart="2877.02" type="DEFAULT_PEDTYPE">
        <walk depart="-0.00" departPos="785.70" arrival="-1" arrivalPos="292.85" duration="-1" routeLength="1107.15" timeLoss="0.00" maxSpeed="1.48"/>
    </personinfo>
    <personinfo id="pOppE.139" depart="2897.87" type="DEFAULT_PEDTYPE">
        <walk depart="-0.00" departPos="785.70" arrival="-1" arrivalPos="292.85" duration="-1" routeLength="1107.15" timeLoss="0.00" maxSpeed="1.48"/>
    </personinfo>
    <personinfo id="pOppE.14" depart="291.87" type="DEFAULT_PEDTYPE">
        <walk depart="-0.00" departPos="785.70" arrival="-1" arrivalPos="292.85" duration="-1" routeLength="1107.15" timeLoss="0.00" maxSpeed="1.48"/>
    </personinfo>
    <personinfo id="pOppE.140" depart="2918.72" type="DEFAULT_PEDTYPE">
        <walk depart="-0.00" departPos="785.70" arrival="-1" arrivalPos="292.85" duration="-1" routeLength="1107.15" timeLoss="0.00" maxSpeed="1.48"/>
    </personinfo>
    <personinfo id="pOppE.141" depart="2939.57" type="DEFAULT_PEDTYPE">
        <walk depart="-0.00" departPos="785.70" arrival="-1" arrivalPos="292.85" duration="-1" routeLength="1107.15" timeLoss="0.00" maxSpeed="1.48"/>
    </personinfo>
    <personinfo id="pOppE.142" depart="2960.42" type="DEFAULT_PEDTYPE">
        <walk depart="-0.00" departPos="785.70" arrival="-1" arrivalPos="292.85" duration="-1" routeLength="1107.15" timeLoss="0.00" maxSpeed="1.48"/>
    </personinfo>
    <personinfo id="pOppE.143" depart="2981.26" type="DEFAULT_PEDTYPE">
        <walk depart="-0.00" departPos="785.70" arrival="-1" arrivalPos="292.85" duration="-1" routeLength="1107.15" timeLoss="0.00" maxSpeed="1.48"/>
    </personinfo>
    <personinfo id="pOppE.15" depart="312.72" type="DEFAULT_PEDTYPE">
        <walk depart="-0.00" departPos="785.70" arrival="-1" arrivalPos="292.85" duration="-1" routeLength="1107.15" timeLoss="0.00" maxSpeed="1.48"/>
    </personinfo>
    <personinfo id="pOppE.16" depart="333.57" type="DEFAULT_PEDTYPE">
        <walk depart="-0.00" departPos="785.70" arrival="-1" arrivalPos="292.85" duration="-1" routeLength="1107.15" timeLoss="0.00" maxSpeed="1.48"/>
    </personinfo>
    <personinfo id="pOppE.17" depart="354.42" type="DEFAULT_PEDTYPE">
        <walk depart="-0.00" departPos="785.70" arrival="-1" arrivalPos="292.85" duration="-1" routeLength="1107.15" timeLoss="0.00" maxSpeed="1.48"/>
    </personinfo>
    <personinfo id="pOppE.18" depart="375.26" type="DEFAULT_PEDTYPE">
        <walk depart="-0.00" departPos="785.70" arrival="-1" arrivalPos="292.85" duration="-1" routeLength="1107.15" timeLoss="0.00" maxSpeed="1.48"/>
    </personinfo>
    <personinfo id="pOppE.19" depart="396.11" type="DEFAULT_PEDTYPE">
        <walk depart="-0.00" departPos="785.70" arrival="-1" arrivalPos="292.85" duration="-1" routeLength="1107.15" timeLoss="0.00" maxSpeed="1.48"/>
    </personinfo>
    <personinfo id="pOppE.2" depart="41.70" type="DEFAULT_PEDTYPE">
        <walk depart="-0.00" departPos="785.70" arrival="-1" arrivalPos="292.85" duration="-1" routeLength="1107.15" timeLoss="0.00" maxSpeed="1.48"/>
    </personinfo>
    <personinfo id="pOppE.20" depart="416.96" type="DEFAULT_PEDTYPE">
        <walk depart="-0.00" departPos="785.70" arrival="-1" arrivalPos="292.85" duration="-1" routeLength="1107.15" timeLoss="0.00" maxSpeed="1.48"/>
    </personinfo>
    <personinfo id="pOppE.21" depart="437.81" type="DEFAULT_PEDTYPE">
        <walk depart="-0.00" departPos="785.70" arrival="-1" arrivalPos="292.85" duration="-1" routeLength="1107.15" timeLoss="0.00" maxSpeed="1.48"/>
    </personinfo>
    <personinfo id="pOppE.22" depart="458.66" type="DEFAULT_PEDTYPE">
        <walk depart="-0.00" departPos="785.70" arrival="-1" arrivalPos="292.85" duration="-1" routeLength="1107.15" timeLoss="0.00" maxSpeed="1.48"/>
    </personinfo>
    <personinfo id="pOppE.23" depart="479.50" type="DEFAULT_PEDTYPE">
        <walk depart="-0.00" departPos="785.70" arrival="-1" arrivalPos="292.85" duration="-1" routeLength="1107.15" timeLoss="0.00" maxSpeed="1.48"/>
    </personinfo>
    <personinfo id="pOppE.24" depart="500.35" type="DEFAULT_PEDTYPE">
        <walk depart="-0.00" departPos="785.70" arrival="-1" arrivalPos="292.85" duration="-1" routeLength="1107.15" timeLoss="0.00" maxSpeed="1.48"/>
    </personinfo>
    <personinfo id="pOppE.25" depart="521.20" type="DEFAULT_PEDTYPE">
        <walk depart="-0.00" departPos="785.70" arrival="-1" arrivalPos="292.85" duration="-1" routeLength="1107.15" timeLoss="0.00" maxSpeed="1.48"/>
    </personinfo>
    <personinfo id="pOppE.26" depart="542.05" type="DEFAULT_PEDTYPE">
        <walk depart="-0.00" departPos="785.70" arrival="-1" arrivalPos="292.85" duration="-1" routeLength="1107.15" timeLoss="0.00" maxSpeed="1.48"/>
    </personinfo>
    <personinfo id="pOppE.27" depart="562.90" type="DEFAULT_PEDTYPE">
        <walk depart="-0.00" departPos="785.70" arrival="-1" arrivalPos="292.85" duration="-1" routeLength="1107.15" timeLoss="0.00" maxSpeed="1.48"/>
    </personinfo>
    <personinfo id="pOppE.28" depart="583.74" type="DEFAULT_PEDTYPE">
        <walk depart="-0.00" departPos="785.70" arrival="-1" arrivalPos="292.85" duration="-1" routeLength="1107.15" timeLoss="0.00" maxSpeed="1.48"/>
    </personinfo>
    <personinfo id="pOppE.29" depart="604.59" type="DEFAULT_PEDTYPE">
        <walk depart="-0.00" departPos="785.70" arrival="-1" arrivalPos="292.85" duration="-1" routeLength="1107.15" timeLoss="0.00" maxSpeed="1.48"/>
    </personinfo>
    <personinfo id="pOppE.3" depart="62.54" type="DEFAULT_PEDTYPE">
        <walk depart="-0.00" departPos="785.70" arrival="-1" arrivalPos="292.85" duration="-1" routeLength="1107.15" timeLoss="0.00" maxSpeed="1.48"/>
    </personinfo>
    <personinfo id="pOppE.30" depart="625.44" type="DEFAULT_PEDTYPE">
        <walk depart="-0.00" departPos="785.70" arrival="-1" arrivalPos="292.85" duration="-1" routeLength="1107.15" timeLoss="0.00" maxSpeed="1.48"/>
    </personinfo>
    <personinfo id="pOppE.31" depart="646.29" type="DEFAULT_PEDTYPE">
        <walk depart="-0.00" departPos="785.70" arrival="-1" arrivalPos="292.85" duration="-1" routeLength="1107.15" timeLoss="0.00" maxSpeed="1.48"/>
    </personinfo>
    <personinfo id="pOppE.32" depart="667.14" type="DEFAULT_PEDTYPE">
        <walk depart="-0.00" departPos="785.70" arrival="-1" arrivalPos="292.85" duration="-1" routeLength="1107.15" timeLoss="0.00" maxSpeed="1.48"/>
    </personinfo>
    <personinfo id="pOppE.33" depart="687.98" type="DEFAULT_PEDTYPE">
        <walk depart="-0.00" departPos="785.70" arrival="-1" arrivalPos="292.85" duration="-1" routeLength="1107.15" timeLoss="0.00" maxSpeed="1.48"/>
    </personinfo>
    <personinfo id="pOppE.34" depart="708.83" type="DEFAULT_PEDTYPE">
        <walk depart="-0.00" departPos="785.70" arrival="-1" arrivalPos="292.85" duration="-1" routeLength="1107.15" timeLoss="0.00" maxSpeed="1.48"/>
    </personinfo>
    <personinfo id="pOppE.35" depart="729.68" type="DEFAULT_PEDTYPE">
        <walk depart="-0.00" departPos="785.70" arrival="-1" arrivalPos="292.85" duration="-1" routeLength="1107.15" timeLoss="0.00" maxSpeed="1.48"/>
    </personinfo>
    <personinfo id="pOppE.36" depart="750.53" type="DEFAULT_PEDTYPE">
        <walk depart="-0.00" departPos="785.70" arrival="-1" arrivalPos="292.85" duration="-1" routeLength="1107.15" timeLoss="0.00" maxSpeed="1.48"/>
    </personinfo>
    <personinfo id="pOppE.37" depart="771.38" type="DEFAULT_PEDTYPE">
        <walk depart="-0.00" departPos="785.70" arrival="-1" arrivalPos="292.85" duration="-1" routeLength="1107.15" timeLoss="0.00" maxSpeed="1.48"/>
    </personinfo>
    <personinfo id="pOppE.38" depart="792.22" type="DEFAULT_PEDTYPE">
        <walk depart="-0.00" departPos="785.70" arrival="-1" arrivalPos="292.85" duration="-1" routeLength="1107.15" timeLoss="0.00" maxSpeed="1.48"/>
    </personinfo>
    <personinfo id="pOppE.39" depart="813.07" type="DEFAULT_PEDTYPE">
        <walk depart="-0.00" departPos="785.70" arrival="-1" arrivalPos="292.85" duration="-1" routeLength="1107.15" timeLoss="0.00" maxSpeed="1.48"/>
    </personinfo>
    <personinfo id="pOppE.4" depart="83.39" type="DEFAULT_PEDTYPE">
        <walk depart="-0.00" departPos="785.70" arrival="-1" arrivalPos="292.85" duration="-1" routeLength="1107.15" timeLoss="0.00" maxSpeed="1.48"/>
    </personinfo>
    <personinfo id="pOppE.40" depart="833.92" type="DEFAULT_PEDTYPE">
        <walk depart="-0.00" departPos="785.70" arrival="-1" arrivalPos="292.85" duration="-1" routeLength="1107.15" timeLoss="0.00" maxSpeed="1.48"/>
    </personinfo>
    <personinfo id="pOppE.41" depart="854.77" type="DEFAULT_PEDTYPE">
        <walk depart="-0.00" departPos="785.70" arrival="-1" arrivalPos="292.85" duration="-1" routeLength="1107.15" timeLoss="0.00" maxSpeed="1.48"/>
    </personinfo>
    <personinfo id="pOppE.42" depart="875.62" type="DEFAULT_PEDTYPE">
        <walk depart="-0.00" departPos="785.70" arrival="-1" arrivalPos="292.85" duration="-1" routeLength="1107.15" timeLoss="0.00" maxSpeed="1.48"/>
    </personinfo>
    <personinfo id="pOppE.43" depart="896.46" type="DEFAULT_PEDTYPE">
        <walk depart="-0.00" departPos="785.70" arrival="-1" arrivalPos="292.85" duration="-1" routeLength="1107.15" timeLoss="0.00" maxSpeed="1.48"/>
    </personinfo>
    <personinfo id="pOppE.44" depart="917.31" type="DEFAULT_PEDTYPE">
        <walk depart="-0.00" departPos="785.70" arrival="-1" arrivalPos="292.85" duration="-1" routeLength="1107.15" timeLoss="0.00" maxSpeed="1.48"/>
    </personinfo>
    <personinfo id="pOppE.45" depart="938.16" type="DEFAULT_PEDTYPE">
        <walk depart="-0.00" departPos="785.70" arrival="-1" arrivalPos="292.85" duration="-1" routeLength="1107.15" timeLoss="0.00" maxSpeed="1.48"/>
    </personinfo>
    <personinfo id="pOppE.46" depart="959.01" type="DEFAULT_PEDTYPE">
        <walk depart="-0.00" departPos="785.70" arrival="-1" arrivalPos="292.85" duration="-1" routeLength="1107.15" timeLoss="0.00" maxSpeed="1.48"/>
    </personinfo>
    <personinfo id="pOppE.47" depart="979.86" type="DEFAULT_PEDTYPE">
        <walk depart="-0.00" departPos="785.70" arrival="-1" arrivalPos="292.85" duration="-1" routeLength="1107.15" timeLoss="0.00" maxSpeed="1.48"/>
    </personinfo>
    <personinfo id="pOppE.48" depart="1000.70" type="DEFAULT_PEDTYPE">
        <walk depart="-0.00" departPos="785.70" arrival="-1" arrivalPos="292.85" duration="-1" routeLength="1107.15" timeLoss="0.00" maxSpeed="1.48"/>
    </personinfo>
    <personinfo id="pOppE.49" depart="1021.55" type="DEFAULT_PEDTYPE">
        <walk depart="-0.00" departPos="785.70" arrival="-1" arrivalPos="292.85" duration="-1" routeLength="1107.15" timeLoss="0.00" maxSpeed="1.48"/>
    </personinfo>
    <personinfo id="pOppE.5" depart="104.24" type="DEFAULT_PEDTYPE">
        <walk depart="-0.00" departPos="785.70" arrival="-1" arrivalPos="292.85" duration="-1" routeLength="1107.15" timeLoss="0.00" maxSpeed="1.48"/>
    </personinfo>
    <personinfo id="pOppE.50" depart="1042.40" type="DEFAULT_PEDTYPE">
        <walk depart="-0.00" departPos="785.70" arrival="-1" arrivalPos="292.85" duration="-1" routeLength="1107.15" timeLoss="0.00" maxSpeed="1.48"/>
    </personinfo>
    <personinfo id="pOppE.51" depart="1063.25" type="DEFAULT_PEDTYPE">
        <walk depart="-0.00" departPos="785.70" arrival="-1" arrivalPos="292.85" duration="-1" routeLength="1107.15" timeLoss="0.00" maxSpeed="1.48"/>
    </personinfo>
    <personinfo id="pOppE.52" depart="1084.10" type="DEFAULT_PEDTYPE">
        <walk depart="-0.00" departPos="785.70" arrival="-1" arrivalPos="292.85" duration="-1" routeLength="1107.15" timeLoss="0.00" maxSpeed="1.48"/>
    </personinfo>
    <personinfo id="pOppE.53" depart="1104.94" type="DEFAULT_PEDTYPE">
        <walk depart="-0.00" departPos="785.70" arrival="-1" arrivalPos="292.85" duration="-1" routeLength="1107.15" timeLoss="0.00" maxSpeed="1.48"/>
    </personinfo>
    <personinfo id="pOppE.54" depart="1125.79" type="DEFAULT_PEDTYPE">
        <walk depart="-0.00" departPos="785.70" arrival="-1" arrivalPos="292.85" duration="-1" routeLength="1107.15" timeLoss="0.00" maxSpeed="1.48"/>
    </personinfo>
    <personinfo id="pOppE.55" depart="1146.64" type="DEFAULT_PEDTYPE">
        <walk depart="-0.00" departPos="785.70" arrival="-1" arrivalPos="292.85" duration="-1" routeLength="1107.15" timeLoss="0.00" maxSpeed="1.48"/>
    </personinfo>
    <personinfo id="pOppE.56" depart="1167.49" type="DEFAULT_PEDTYPE">
        <walk depart="-0.00" departPos="785.70" arrival="-1" arrivalPos="292.85" duration="-1" routeLength="1107.15" timeLoss="0.00" maxSpeed="1.48"/>
    </personinfo>
    <personinfo id="pOppE.57" depart="1188.34" type="DEFAULT_PEDTYPE">
        <walk depart="-0.00" departPos="785.70" arrival="-1" arrivalPos="292.85" duration="-1" routeLength="1107.15" timeLoss="0.00" maxSpeed="1.48"/>
    </personinfo>
    <personinfo id="pOppE.58" depart="1209.18" type="DEFAULT_PEDTYPE">
        <walk depart="-0.00" departPos="785.70" arrival="-1" arrivalPos="292.85" duration="-1" routeLength="1107.15" timeLoss="0.00" maxSpeed="1.48"/>
    </personinfo>
    <personinfo id="pOppE.59" depart="1230.03" type="DEFAULT_PEDTYPE">
        <walk depart="-0.00" departPos="785.70" arrival="-1" arrivalPos="292.85" duration="-1" routeLength="1107.15" timeLoss="0.00" maxSpeed="1.48"/>
    </personinfo>
    <personinfo id="pOppE.6" depart="125.09" type="DEFAULT_PEDTYPE">
        <walk depart="-0.00" departPos="785.70" arrival="-1" arrivalPos="292.85" duration="-1" routeLength="1107.15" timeLoss="0.00" maxSpeed="1.48"/>
    </personinfo>
    <personinfo id="pOppE.60" depart="1250.88" type="DEFAULT_PEDTYPE">
        <walk depart="-0.00" departPos="785.70" arrival="-1" arrivalPos="292.85" duration="-1" routeLength="1107.15" timeLoss="0.00" maxSpeed="1.48"/>
    </personinfo>
    <personinfo id="pOppE.61" depart="1271.73" type="DEFAULT_PEDTYPE">
        <walk depart="-0.00" departPos="785.70" arrival="-1" arrivalPos="292.85" duration="-1" routeLength="1107.15" timeLoss="0.00" maxSpeed="1.48"/>
    </personinfo>
    <personinfo id="pOppE.62" depart="1292.58" type="DEFAULT_PEDTYPE">
        <walk depart="-0.00" departPos="785.70" arrival="-1" arrivalPos="292.85" duration="-1" routeLength="1107.15" timeLoss="0.00" maxSpeed="1.48"/>
    </personinfo>
    <personinfo id="pOppE.63" depart="1313.42" type="DEFAULT_PEDTYPE">
        <walk depart="-0.00" departPos="785.70" arrival="-1" arrivalPos="292.85" duration="-1" routeLength="1107.15" timeLoss="0.00" maxSpeed="1.48"/>
    </personinfo>
    <personinfo id="pOppE.64" depart="1334.27" type="DEFAULT_PEDTYPE">
        <walk depart="-0.00" departPos="785.70" arrival="-1" arrivalPos="292.85" duration="-1" routeLength="1107.15" timeLoss="0.00" maxSpeed="1.48"/>
    </personinfo>
    <personinfo id="pOppE.65" depart="1355.12" type="DEFAULT_PEDTYPE">
        <walk depart="-0.00" departPos="785.70" arrival="-1" arrivalPos="292.85" duration="-1" routeLength="1107.15" timeLoss="0.00" maxSpeed="1.48"/>
    </personinfo>
    <personinfo id="pOppE.66" depart="1375.97" type="DEFAULT_PEDTYPE">
        <walk depart="-0.00" departPos="785.70" arrival="-1" arrivalPos="292.85" duration="-1" routeLength="1107.15" timeLoss="0.00" maxSpeed="1.48"/>
    </personinfo>
    <personinfo id="pOppE.67" depart="1396.82" type="DEFAULT_PEDTYPE">
        <walk depart="-0.00" departPos="785.70" arrival="-1" arrivalPos="292.85" duration="-1" routeLength="1107.15" timeLoss="0.00" maxSpeed="1.48"/>
    </personinfo>
    <personinfo id="pOppE.68" depart="1417.66" type="DEFAULT_PEDTYPE">
        <walk depart="-0.00" departPos="785.70" arrival="-1" arrivalPos="292.85" duration="-1" routeLength="1107.15" timeLoss="0.00" maxSpeed="1.48"/>
    </personinfo>
    <personinfo id="pOppE.69" depart="1438.51" type="DEFAULT_PEDTYPE">
        <walk depart="-0.00" departPos="785.70" arrival="-1" arrivalPos="292.85" duration="-1" routeLength="1107.15" timeLoss="0.00" maxSpeed="1.48"/>
    </personinfo>
    <personinfo id="pOppE.7" depart="145.94" type="DEFAULT_PEDTYPE">
        <walk depart="-0.00" departPos="785.70" arrival="-1" arrivalPos="292.85" duration="-1" routeLength="1107.15" timeLoss="0.00" maxSpeed="1.48"/>
    </personinfo>
    <personinfo id="pOppE.70" depart="1459.36" type="DEFAULT_PEDTYPE">
        <walk depart="-0.00" departPos="785.70" arrival="-1" arrivalPos="292.85" duration="-1" routeLength="1107.15" timeLoss="0.00" maxSpeed="1.48"/>
    </personinfo>
    <personinfo id="pOppE.71" depart="1480.21" type="DEFAULT_PEDTYPE">
        <walk depart="-0.00" departPos="785.70" arrival="-1" arrivalPos="292.85" duration="-1" routeLength="1107.15" timeLoss="0.00" maxSpeed="1.48"/>
    </personinfo>
    <personinfo id="pOppE.72" depart="1501.06" type="DEFAULT_PEDTYPE">
        <walk depart="-0.00" departPos="785.70" arrival="-1" arrivalPos="292.85" duration="-1" routeLength="1107.15" timeLoss="0.00" maxSpeed="1.48"/>
    </personinfo>
    <personinfo id="pOppE.73" depart="1521.90" type="DEFAULT_PEDTYPE">
        <walk depart="-0.00" departPos="785.70" arrival="-1" arrivalPos="292.85" duration="-1" routeLength="1107.15" timeLoss="0.00" maxSpeed="1.48"/>
    </personinfo>
    <personinfo id="pOppE.74" depart="1542.75" type="DEFAULT_PEDTYPE">
        <walk depart="-0.00" departPos="785.70" arrival="-1" arrivalPos="292.85" duration="-1" routeLength="1107.15" timeLoss="0.00" maxSpeed="1.48"/>
    </personinfo>
    <personinfo id="pOppE.75" depart="1563.60" type="DEFAULT_PEDTYPE">
        <walk depart="-0.00" departPos="785.70" arrival="-1" arrivalPos="292.85" duration="-1" routeLength="1107.15" timeLoss="0.00" maxSpeed="1.48"/>
    </personinfo>
    <personinfo id="pOppE.76" depart="1584.45" type="DEFAULT_PEDTYPE">
        <walk depart="-0.00" departPos="785.70" arrival="-1" arrivalPos="292.85" duration="-1" routeLength="1107.15" timeLoss="0.00" maxSpeed="1.48"/>
    </personinfo>
    <personinfo id="pOppE.77" depart="1605.30" type="DEFAULT_PEDTYPE">