<?xml version="1.0" encoding="UTF-8"?>

<!-- generated on 2021-11-03 21:31:50 by Eclipse SUMO sumo Version 1.10.0
<configuration xmlns:xsi="http://www.w3.org/2001/XMLSchema-instance" xsi:noNamespaceSchemaLocation="http://sumo.dlr.de/xsd/sumoConfiguration.xsd">

    <input>
        <net-file value="data/cross.net.xml"/>
        <route-files value="data/cross.rou.xml"/>
        <additional-files value="data/cross.tls.xml"/>
    </input>

    <output>
        <tripinfo-output value="data/tripinfo.xml"/>
        <tripinfo-output.write-unfinished value="true"/>
    </output>

    <time>
        <begin value="0"/>
        <step-length value="1"/>
    </time>

    <processing>
        <threads value="5"/>
        <time-to-teleport value="-1"/>
    </processing>

    <report>
        <verbose value="true"/>
        <no-warnings value="true"/>
        <no-step-log value="true"/>
    </report>

    <traci_server>
        <remote-port value="60907"/>
    </traci_server>

    <gui_only>
        <gui-settings-file value="data/viewsettings.xml"/>
        <quit-on-end value="true"/>
        <tracker-interval value="1"/>
    </gui_only>

</configuration>
-->

<tripinfos xmlns:xsi="http://www.w3.org/2001/XMLSchema-instance" xsi:noNamespaceSchemaLocation="http://sumo.dlr.de/xsd/tripinfo_file.xsd">
    <tripinfo id="straightW_16" depart="9.00" departLane="edgeW_O_2" departPos="4.31" departSpeed="0.00" departDelay="0.00" arrival="98.00" arrivalLane="edgeE_I_2" arrivalPos="779.30" arrivalSpeed="29.49" duration="89.00" routeLength="1595.69" waitingTime="0.00" waitingCount="0" stopTime="0.00" timeLoss="8.00" rerouteNo="0" devices="tripinfo_straightW_16" vType="vehicleW_16" speedFactor="1.23" vaporized=""/>
    <tripinfo id="straightS_0" depart="0.00" departLane="edgeS_O_4" departPos="4.39" departSpeed="0.00" departDelay="0.00" arrival="-1.00" arrivalLane="" arrivalPos="-1.00" arrivalSpeed="-1.00" duration="100.00" routeLength="677.11" waitingTime="60.00" waitingCount="1" stopTime="0.00" timeLoss="67.60" rerouteNo="0" devices="tripinfo_straightS_0" vType="vehicleS_0" speedFactor="0.99" vaporized="end"/>
    <tripinfo id="straightW_1" depart="0.00" departLane="edgeW_O_1" departPos="4.05" departSpeed="0.00" departDelay="0.00" arrival="-1.00" arrivalLane="" arrivalPos="-1.00" arrivalSpeed="-1.00" duration="100.00" routeLength="1561.95" waitingTime="0.00" waitingCount="0" stopTime="0.00" timeLoss="8.30" rerouteNo="0" devices="tripinfo_straightW_1" vType="vehicleW_1" speedFactor="1.07" vaporized=""/>
    <tripinfo id="straightE_2" depart="2.00" departLane="edgeE_O_1" departPos="4.49" departSpeed="0.00" departDelay="0.00" arrival="-1.00" arrivalLane="" arrivalPos="-1.00" arrivalSpeed="-1.00" duration="98.00" routeLength="1221.14" waitingTime="0.00" waitingCount="0" stopTime="0.00" timeLoss="8.65" rerouteNo="0" devices="tripinfo_straightE_2" vType="vehicleE_2" speedFactor="0.94" vaporized=""/>
    <tripinfo id="leftN_3" depart="3.00" departLane="edgeN_O_5" departPos="5.51" departSpeed="0.00" departDelay="0.00" arrival="-1.00" arrivalLane="" arrivalPos="-1.00" arrivalSpeed="-1.00" duration="97.00" routeLength="775.99" waitingTime="56.00" waitingCount="1" stopTime="0.00" timeLoss="63.66" rerouteNo="0" devices="tripinfo_leftN_3" vType="vehicleN_3" speedFactor="1.10" vaporized="end"/>
    <tripinfo id="straightE_4" depart="3.00" departLane="edgeE_O_3" departPos="5.47" departSpeed="0.00" departDelay="0.00" arrival="-1.00" arrivalLane="" arrivalPos="-1.00" arrivalSpeed="-1.00" duration="97.00" routeLength="1400.93" waitingTime="0.00" waitingCount="0" stopTime="0.00" timeLoss="8.38" rerouteNo="0" devices="tripinfo_straightE_4" vType="vehicleE_4" speedFactor="1.03" vaporized=""/>
    <tripinfo id="leftN_5" depart="6.00" departLane="edgeN_O_5" departPos="5.17" departSpeed="0.00" departDelay="2.00" arrival="-1.00" arrivalLane="" arrivalPos="-1.00" arrivalSpeed="-1.00" duration="94.00" routeLength="768.57" waitingTime="50.00" waitingCount="1" stopTime="0.00" timeLoss="58.47" rerouteNo="0" devices="tripinfo_leftN_5" vType="vehicleN_5" speedFactor="1.02" vaporized="end"/>
    <tripinfo id="straightW_6" depart="4.00" departLane="edgeW_O_3" departPos="5.48" departSpeed="0.00" departDelay="0.00" arrival="-1.00" arrivalLane="" arrivalPos="-1.00" arrivalSpeed="-1.00" duration="96.00" routeLength="1431.81" waitingTime="0.00" waitingCount="0" stopTime="0.00" timeLoss="8.53" rerouteNo="0" devices="tripinfo_straightW_6" vType="vehicleW_6" speedFactor="1.06" vaporized=""/>
    <tripinfo id="uturnE_7" depart="4.00" departLane="edgeE_O_4" departPos="5.15" departSpeed="0.00" departDelay="0.00" arrival="-1.00" arrivalLane="" arrivalPos="-1.00" arrivalSpeed="-1.00" duration="96.00" routeLength="1376.81" waitingTime="3.00" waitingCount="1" stopTime="0.00" timeLoss="17.15" rerouteNo="0" devices="tripinfo_uturnE_7" vType="vehicleE_7" speedFactor="1.15" vaporized=""/>
    <tripinfo id="straightS_8" depart="5.00" departLane="edgeS_O_4" departPos="5.76" departSpeed="0.00" departDelay="0.00" arrival="-1.00" arrivalLane="" arrivalPos="-1.00" arrivalSpeed="-1.00" duration="95.00" routeLength="675.74" waitingTime="55.00" waitingCount="1" stopTime="0.00" timeLoss="63.90" rerouteNo="0" devices="tripinfo_straightS_8" vType="vehicleS_8" speedFactor="1.03" vaporized="end"/>
    <tripinfo id="straightW_9" depart="5.00" departLane="edgeW_O_2" departPos="4.09" departSpeed="0.00" departDelay="0.00" arrival="-1.00" arrivalLane="" arrivalPos="-1.00" arrivalSpeed="-1.00" duration="95.00" routeLength="858.39" waitingTime="0.00" waitingCount="0" stopTime="0.00" timeLoss="10.63" rerouteNo="0" devices="tripinfo_straightW_9" vType="vehicleW_9" speedFactor="0.82" vaporized=""/>
    <tripinfo id="straightE_10" depart="5.00" departLane="edgeE_O_3" departPos="5.68" departSpeed="0.00" departDelay="0.00" arrival="-1.00" arrivalLane="" arrivalPos="-1.00" arrivalSpeed="-1.00" duration="95.00" routeLength="1508.84" waitingTime="0.00" waitingCount="0" stopTime="0.00" timeLoss="9.40" rerouteNo="0" devices="tripinfo_straightE_10" vType="vehicleE_10" speedFactor="1.12" vaporized=""/>
    <tripinfo id="straightE_11" depart="6.00" departLane="edgeE_O_2" departPos="5.32" departSpeed="0.00" departDelay="0.00" arrival="-1.00" arrivalLane="" arrivalPos="-1.00" arrivalSpeed="-1.00" duration="94.00" routeLength="1276.48" waitingTime="0.00" waitingCount="0" stopTime="0.00" timeLoss="8.32" rerouteNo="0" devices="tripinfo_straightE_11" vType="vehicleE_11" speedFactor="1.01" vaporized=""/>
    <tripinfo id="uturnW_12" depart="7.00" departLane="edgeW_O_4" departPos="4.90" departSpeed="0.00" departDelay="0.00" arrival="-1.00" arrivalLane="" arrivalPos="-1.00" arrivalSpeed="-1.00" duration="93.00" routeLength="1038.14" waitingTime="4.00" waitingCount="1" stopTime="0.00" timeLoss="17.95" rerouteNo="0" devices="tripinfo_uturnW_12" vType="vehicleW_12" speedFactor="1.03" vaporized=""/>
    <tripinfo id="straightE_13" depart="8.00" departLane="edgeE_O_2" departPos="5.41" departSpeed="0.00" departDelay="1.00" arrival="-1.00" arrivalLane="" arrivalPos="-1.00" arrivalSpeed="-1.00" duration="92.00" routeLength="1251.77" waitingTime="0.00" waitingCount="0" stopTime="0.00" timeLoss="12.16" rerouteNo="0" devices="tripinfo_straightE_13" vType="vehicleE_13" speedFactor="1.07" vaporized=""/>
    <tripinfo id="straightW_14" depart="8.00" departLane="edgeW_O_3" departPos="5.68" departSpeed="0.00" departDelay="0.00" arrival="-1.00" arrivalLane="" arrivalPos="-1.00" arrivalSpeed="-1.00" duration="92.00" routeLength="1117.97" waitingTime="0.00" waitingCount="0" stopTime="0.00" timeLoss="8.71" rerouteNo="0" devices="tripinfo_straightW_14" vType="vehicleW_14" speedFactor="0.96" vaporized=""/>
    <tripinfo id="straightS_15" depart="9.00" departLane="edgeS_O_4" departPos="4.28" departSpeed="0.00" departDelay="0.00" arrival="-1.00" arrivalLane="" arrivalPos="-1.00" arrivalSpeed="-1.00" duration="91.00" routeLength="677.22" waitingTime="49.00" waitingCount="1" stopTime="0.00" timeLoss="59.99" rerouteNo="0" devices="tripinfo_straightS_15" vType="vehicleS_15" speedFactor="1.04" vaporized="end"/>
    <tripinfo id="straightS_17" depart="10.00" departLane="edgeS_O_2" departPos="4.28" departSpeed="0.00" departDelay="0.00" arrival="-1.00" arrivalLane="" arrivalPos="-1.00" arrivalSpeed="-1.00" duration="90.00" routeLength="670.58" waitingTime="51.00" waitingCount="1" stopTime="0.00" timeLoss="58.52" rerouteNo="0" devices="tripinfo_straightS_17" vType="vehicleS_17" speedFactor="1.01" vaporized="end"/>
    <tripinfo id="straightN_18" depart="11.00" departLane="edgeN_O_2" departPos="5.75" departSpeed="0.00" departDelay="0.00" arrival="-1.00" arrivalLane="" arrivalPos="-1.00" arrivalSpeed="-1.00" duration="89.00" routeLength="775.74" waitingTime="47.00" waitingCount="1" stopTime="0.00" timeLoss="56.14" rerouteNo="0" devices="tripinfo_straightN_18" vType="vehicleN_18" speedFactor="1.12" vaporized="end"/>
    <tripinfo id="straightE_19" depart="11.00" departLane="edgeE_O_1" departPos="4.12" departSpeed="0.00" departDelay="0.00" arrival="-1.00" arrivalLane="" arrivalPos="-1.00" arrivalSpeed="-1.00" duration="89.00" routeLength="1165.58" waitingTime="0.00" waitingCount="0" stopTime="0.00" timeLoss="8.21" rerouteNo="0" devices="tripinfo_straightE_19" vType="vehicleE_19" speedFactor="1.02" vaporized=""/>
    <tripinfo id="straightW_20" depart="12.00" departLane="edgeW_O_3" departPos="5.08" departSpeed="0.00" departDelay="0.00" arrival="-1.00" arrivalLane="" arrivalPos="-1.00" arrivalSpeed="-1.00" duration="88.00" routeLength="1110.34" waitingTime="0.00" waitingCount="0" stopTime="0.00" timeLoss="8.48" rerouteNo="0" devices="tripinfo_straightW_20" vType="vehicleW_20" speedFactor="1.00" vaporized=""/>
    <tripinfo id="rightE_21" depart="14.00" departLane="edgeE_O_1" departPos="4.80" departSpeed="0.00" departDelay="1.00" arrival="-1.00" arrivalLane="" arrivalPos="-1.00" arrivalSpeed="-1.00" duration="86.00" routeLength="882.28" waitingTime="0.00" waitingCount="0" stopTime="0.00" timeLoss="9.97" rerouteNo="0" devices="tripinfo_rightE_21" vType="vehicleE_21" speedFactor="0.95" vaporized=""/>
    <tripinfo id="leftS_22" depart="14.00" departLane="edgeS_O_5" departPos="4.12" departSpeed="0.00" departDelay="0.00" arrival="-1.00" arrivalLane="" arrivalPos="-1.00" arrivalSpeed="-1.00" duration="86.00" routeLength="677.38" waitingTime="46.00" waitingCount="1" stopTime="0.00" timeLoss="57.04" rerouteNo="0" devices="tripinfo_leftS_22" vType="vehicleS_22" speedFactor="1.11" vaporized="end"/>
    <tripinfo id="straightE_23" depart="14.00" departLane="edgeE_O_3" departPos="5.19" departSpeed="0.00" departDelay="0.00" arrival="-1.00" arrivalLane="" arrivalPos="-1.00" arrivalSpeed="-1.00" duration="86.00" routeLength="1384.20" waitingTime="0.00" waitingCount="0" stopTime="0.00" timeLoss="7.85" rerouteNo="0" devices="tripinfo_straightE_23" vType="vehicleE_23" speedFactor="1.16" vaporized=""/>
    <tripinfo id="straightS_24" depart="15.00" departLane="edgeS_O_3" departPos="4.72" departSpeed="0.00" departDelay="0.00" arrival="-1.00" arrivalLane="" arrivalPos="-1.00" arrivalSpeed="-1.00" duration="85.00" routeLength="668.78" waitingTime="43.00" waitingCount="1" stopTime="0.00" timeLoss="51.17" rerouteNo="0" devices="tripinfo_straightS_24" vType="vehicleS_24" speedFactor="0.94" vaporized="end"/>
    <tripinfo id="straightE_25" depart="17.00" departLane="edgeE_O_1" departPos="4.60" departSpeed="0.00" departDelay="1.00" arrival="-1.00" arrivalLane="" arrivalPos="-1.00" arrivalSpeed="-1.00" duration="83.00" routeLength="1215.48" waitingTime="0.00" waitingCount="0" stopTime="0.00" timeLoss="8.63" rerouteNo="0" devices="tripinfo_straightE_25" vType="vehicleE_25" speedFactor="1.13" vaporized=""/>
    <tripinfo id="leftS_26" depart="17.00" departLane="edgeS_O_5" departPos="4.82" departSpeed="0.00" departDelay="0.00" arrival="-1.00" arrivalLane="" arrivalPos="-1.00" arrivalSpeed="-1.00" duration="83.00" routeLength="663.02" waitingTime="31.00" waitingCount="1" stopTime="0.00" timeLoss="40.44" rerouteNo="0" devices="tripinfo_leftS_26" vType="vehicleS_26" speedFactor="0.73" vaporized="end"/>
    <tripinfo id="uturnW_27" depart="17.00" departLane="edgeW_O_4" departPos="5.49" departSpeed="0.00" departDelay="0.00" arrival="-1.00" arrivalLane="" arrivalPos="-1.00" arrivalSpeed="-1.00" duration="83.00" routeLength="999.78" waitingTime="1.00" waitingCount="1" stopTime="0.00" timeLoss="16.50" rerouteNo="0" devices="tripinfo_uturnW_27" vType="vehicleW_27" speedFactor="1.14" vaporized=""/>
    <tripinfo id="straightN_28" depart="18.00" departLane="edgeN_O_3" departPos="4.38" departSpeed="0.00" departDelay="0.00" arrival="-1.00" arrivalLane="" arrivalPos="-1.00" arrivalSpeed="-1.00" duration="82.00" routeLength="777.12" waitingTime="32.00" waitingCount="1" stopTime="0.00" timeLoss="40.71" rerouteNo="0" devices="tripinfo_straightN_28" vType="vehicleN_28" speedFactor="0.89" vaporized="end"/>
    <tripinfo id="straightS_29" depart="18.00" departLane="edgeS_O_4" departPos="5.65" departSpeed="0.00" departDelay="0.00" arrival="-1.00" arrivalLane="" arrivalPos="-1.00" arrivalSpeed="-1.00" duration="82.00" routeLength="669.33" waitingTime="41.00" waitingCount="1" stopTime="0.00" timeLoss="50.29" rerouteNo="0" devices="tripinfo_straightS_29" vType="vehicleS_29" speedFactor="1.00" vaporized="end"/>
    <tripinfo id="straightW_30" depart="19.00" departLane="edgeW_O_3" departPos="5.72" departSpeed="0.00" departDelay="0.00" arrival="-1.00" arrivalLane="" arrivalPos="-1.00" arrivalSpeed="-1.00" duration="81.00" routeLength="830.88" waitingTime="0.00" waitingCount="0" stopTime="0.00" timeLoss="10.17" rerouteNo="0" devices="tripinfo_straightW_30" vType="vehicleW_30" speedFactor="0.97" vaporized=""/>
    <tripinfo id="leftE_31" depart="19.00" departLane="edgeE_O_3" departPos="4.84" departSpeed="0.00" departDelay="0.00" arrival="-1.00" arrivalLane="" arrivalPos="-1.00" arrivalSpeed="-1.00" duration="81.00" routeLength="795.16" waitingTime="7.00" waitingCount="1" stopTime="0.00" timeLoss="16.19" rerouteNo="0" devices="tripinfo_leftE_31" vType="vehicleE_31" speedFactor="1.04" vaporized="end"/>
    <tripinfo id="leftS_32" depart="20.00" departLane="edgeS_O_5" departPos="5.06" departSpeed="0.00" departDelay="0.00" arrival="-1.00" arrivalLane="" arrivalPos="-1.00" arrivalSpeed="-1.00" duration="80.00" routeLength="670.08" waitingTime="38.00" waitingCount="1" stopTime="0.00" timeLoss="47.01" rerouteNo="0" devices="tripinfo_leftS_32" vType="vehicleS_32" speedFactor="0.96" vaporized="end"/>
    <tripinfo id="leftS_33" depart="22.00" departLane="edgeS_O_5" departPos="5.17" departSpeed="0.00" departDelay="1.00" arrival="-1.00" arrivalLane="" arrivalPos="-1.00" arrivalSpeed="-1.00" duration="78.00" routeLength="655.61" waitingTime="30.00" waitingCount="1" stopTime="0.00" timeLoss="46.99" rerouteNo="0" devices="tripinfo_leftS_33" vType="vehicleS_33" speedFactor="1.00" vaporized="end"/>
    <tripinfo id="straightW_34" depart="21.00" departLane="edgeW_O_2" departPos="4.42" departSpeed="0.00" departDelay="0.00" arrival="-1.00" arrivalLane="" arrivalPos="-1.00" arrivalSpeed="-1.00" duration="79.00" routeLength="1011.76" waitingTime="0.00" waitingCount="0" stopTime="0.00" timeLoss="8.09" rerouteNo="0" devices="tripinfo_straightW_34" vType="vehicleW_34" speedFactor="1.07" vaporized=""/>
    <tripinfo id="straightW_35" depart="22.00" departLane="edgeW_O_3" departPos="5.00" departSpeed="0.00" departDelay="0.00" arrival="-1.00" arrivalLane="" arrivalPos="-1.00" arrivalSpeed="-1.00" duration="78.00" routeLength="787.31" waitingTime="0.00" waitingCount="0" stopTime="0.00" timeLoss="6.71" rerouteNo="0" devices="tripinfo_straightW_35" vType="vehicleW_35" speedFactor="0.93" vaporized="end"/>
    <tripinfo id="uturnE_36" depart="22.00" departLane="edgeE_O_4" departPos="5.57" departSpeed="0.00" departDelay="0.00" arrival="-1.00" arrivalLane="" arrivalPos="-1.00" arrivalSpeed="-1.00" duration="78.00" routeLength="775.97" waitingTime="5.00" waitingCount="1" stopTime="0.00" timeLoss="15.45" rerouteNo="0" devices="tripinfo_uturnE_36" vType="vehicleE_36" speedFactor="1.06" vaporized="end"/>
    <tripinfo id="rightN_37" depart="23.00" departLane="edgeN_O_1" departPos="5.25" departSpeed="0.00" departDelay="0.00" arrival="-1.00" arrivalLane="" arrivalPos="-1.00" arrivalSpeed="-1.00" duration="77.00" routeLength="768.25" waitingTime="32.00" waitingCount="1" stopTime="0.00" timeLoss="44.56" rerouteNo="0" devices="tripinfo_rightN_37" vType="vehicleN_37" speedFactor="1.12" vaporized="end"/>
    <tripinfo id="rightN_38" depart="25.00" departLane="edgeN_O_1" departPos="4.47" departSpeed="0.00" departDelay="1.00" arrival="-1.00" arrivalLane="" arrivalPos="-1.00" arrivalSpeed="-1.00" duration="75.00" routeLength="777.03" waitingTime="30.00" waitingCount="1" stopTime="0.00" timeLoss="43.70" rerouteNo="0" devices="tripinfo_rightN_38" vType="vehicleN_38" speedFactor="1.18" vaporized="end"/>
    <tripinfo id="straightS_39" depart="24.00" departLane="edgeS_O_3" departPos="5.27" departSpeed="0.00" departDelay="0.00" arrival="-1.00" arrivalLane="" arrivalPos="-1.00" arrivalSpeed="-1.00" duration="76.00" routeLength="661.81" waitingTime="31.00" waitingCount="1" stopTime="0.00" timeLoss="46.79" rerouteNo="0" devices="tripinfo_straightS_39" vType="vehicleS_39" speedFactor="1.08" vaporized="end"/>
    <tripinfo id="rightE_40" depart="24.00" departLane="edgeE_O_1" departPos="4.08" departSpeed="0.00" departDelay="0.00" arrival="-1.00" arrivalLane="" arrivalPos="-1.00" arrivalSpeed="-1.00" duration="76.00" routeLength="736.59" waitingTime="0.00" waitingCount="0" stopTime="0.00" timeLoss="7.36" rerouteNo="0" devices="tripinfo_rightE_40" vType="vehicleE_40" speedFactor="0.91" vaporized="end"/>
    <tripinfo id="rightN_41" depart="25.00" departLane="edgeN_O_2" departPos="5.13" departSpeed="0.00" departDelay="0.00" arrival="-1.00" arrivalLane="" arrivalPos="-1.00" arrivalSpeed="-1.00" duration="75.00" routeLength="769.66" waitingTime="25.00" waitingCount="2" stopTime="0.00" timeLoss="43.02" rerouteNo="0" devices="tripinfo_rightN_41" vType="vehicleN_41" speedFactor="1.14" vaporized="end"/>
    <tripinfo id="uturnW_42" depart="25.00" departLane="edgeW_O_4" departPos="5.23" departSpeed="0.00" departDelay="0.00" arrival="-1.00" arrivalLane="" arrivalPos="-1.00" arrivalSpeed="-1.00" duration="75.00" routeLength="710.83" waitingTime="0.00" waitingCount="0" stopTime="0.00" timeLoss="6.41" rerouteNo="0" devices="tripinfo_uturnW_42" vType="vehicleW_42" speedFactor="0.88" vaporized="end"/>
    <tripinfo id="straightE_43" depart="26.00" departLane="edgeE_O_1" departPos="4.76" departSpeed="0.00" departDelay="1.00" arrival="-1.00" arrivalLane="" arrivalPos="-1.00" arrivalSpeed="-1.00" duration="74.00" routeLength="734.45" waitingTime="0.00" waitingCount="0" stopTime="0.00" timeLoss="16.07" rerouteNo="0" devices="tripinfo_straightE_43" vType="vehicleE_43" speedFactor="1.08" vaporized="end"/>
    <tripinfo id="leftS_44" depart="26.00" departLane="edgeS_O_5" departPos="4.18" departSpeed="0.00" departDelay="0.00" arrival="-1.00" arrivalLane="" arrivalPos="-1.00" arrivalSpeed="-1.00" duration="74.00" routeLength="649.19" waitingTime="28.00" waitingCount="1" stopTime="0.00" timeLoss="42.94" rerouteNo="0" devices="tripinfo_leftS_44" vType="vehicleS_44" speedFactor="0.99" vaporized="end"/>
    <tripinfo id="leftS_45" depart="29.00" departLane="edgeS_O_5" departPos="5.42" departSpeed="0.00" departDelay="2.00" arrival="-1.00" arrivalLane="" arrivalPos="-1.00" arrivalSpeed="-1.00" duration="71.00" routeLength="641.52" waitingTime="27.00" waitingCount="1" stopTime="0.00" timeLoss="43.83" rerouteNo="0" devices="tripinfo_leftS_45" vType="vehicleS_45" speedFactor="1.13" vaporized="end"/>
    <tripinfo id="uturnE_46" depart="27.00" departLane="edgeE_O_4" departPos="5.43" departSpeed="0.00" departDelay="0.00" arrival="-1.00" arrivalLane="" arrivalPos="-1.00" arrivalSpeed="-1.00" duration="73.00" routeLength="768.30" waitingTime="3.00" waitingCount="1" stopTime="0.00" timeLoss="10.98" rerouteNo="0" devices="tripinfo_uturnE_46" vType="vehicleE_46" speedFactor="1.05" vaporized="end"/>
    <tripinfo id="rightW_47" depart="28.00" departLane="edgeW_O_1" departPos="5.53" departSpeed="0.00" departDelay="0.00" arrival="-1.00" arrivalLane="" arrivalPos="-1.00" arrivalSpeed="-1.00" duration="72.00" routeLength="703.07" waitingTime="0.00" waitingCount="0" stopTime="0.00" timeLoss="6.77" rerouteNo="0" devices="tripinfo_rightW_47" vType="vehicleW_47" speedFactor="0.91" vaporized="end"/>
    <tripinfo id="straightE_48" depart="28.00" departLane="edgeE_O_2" departPos="5.55" departSpeed="0.00" departDelay="0.00" arrival="-1.00" arrivalLane="" arrivalPos="-1.00" arrivalSpeed="-1.00" duration="72.00" routeLength="779.93" waitingTime="0.00" waitingCount="0" stopTime="0.00" timeLoss="6.46" rerouteNo="0" devices="tripinfo_straightE_48" vType="vehicleE_48" speedFactor="1.00" vaporized="end"/>
    <tripinfo id="straightE_49" depart="29.00" departLane="edgeE_O_1" departPos="4.71" departSpeed="0.00" departDelay="0.00" arrival="-1.00" arrivalLane="" arrivalPos="-1.00" arrivalSpeed="-1.00" duration="71.00" routeLength="757.55" waitingTime="0.00" waitingCount="0" stopTime="0.00" timeLoss="8.53" rerouteNo="0" devices="tripinfo_straightE_49" vType="vehicleE_49" speedFactor="1.03" vaporized="end"/>
    <tripinfo id="uturnN_50" depart="30.00" departLane="edgeN_O_5" departPos="4.31" departSpeed="0.00" departDelay="0.00" arrival="-1.00" arrivalLane="" arrivalPos="-1.00" arrivalSpeed="-1.00" duration="70.00" routeLength="762.02" waitingTime="24.00" waitingCount="1" stopTime="0.00" timeLoss="33.39" rerouteNo="0" devices="tripinfo_uturnN_50" vType="vehicleN_50" speedFactor="0.98" vaporized="end"/>
    <tripinfo id="straightS_51" depart="30.00" departLane="edgeS_O_4" departPos="5.29" departSpeed="0.00" departDelay="0.00" arrival="-1.00" arrivalLane="" arrivalPos="-1.00" arrivalSpeed="-1.00" duration="70.00" routeLength="654.28" waitingTime="26.00" waitingCount="1" stopTime="0.00" timeLoss="37.01" rerouteNo="0" devices="tripinfo_straightS_51" vType="vehicleS_51" speedFactor="0.94" vaporized="end"/>
    <tripinfo id="rightW_52" depart="31.00" departLane="edgeW_O_1" departPos="4.33" departSpeed="0.00" departDelay="1.00" arrival="-1.00" arrivalLane="" arrivalPos="-1.00" arrivalSpeed="-1.00" duration="69.00" routeLength="766.89" waitingTime="0.00" waitingCount="0" stopTime="0.00" timeLoss="9.05" rerouteNo="0" devices="tripinfo_rightW_52" vType="vehicleW_52" speedFactor="1.09" vaporized="end"/>
    <tripinfo id="straightE_53" depart="31.00" departLane="edgeE_O_1" departPos="5.18" departSpeed="0.00" departDelay="1.00" arrival="-1.00" arrivalLane="" arrivalPos="-1.00" arrivalSpeed="-1.00" duration="69.00" routeLength="661.67" waitingTime="0.00" waitingCount="0" stopTime="0.00" timeLoss="6.33" rerouteNo="0" devices="tripinfo_straightE_53" vType="vehicleE_53" speedFactor="0.90" vaporized="end"/>
    <tripinfo id="straightS_54" depart="31.00" departLane="edgeS_O_2" departPos="4.72" departSpeed="0.00" departDelay="0.00" arrival="-1.00" arrivalLane="" arrivalPos="-1.00" arrivalSpeed="-1.00" duration="69.00" routeLength="661.81" waitingTime="23.00" waitingCount="1" stopTime="0.00" timeLoss="33.92" rerouteNo="0" devices="tripinfo_straightS_54" vType="vehicleS_54" speedFactor="0.89" vaporized="end"/>
    <tripinfo id="straightW_55" depart="31.00" departLane="edgeW_O_3" departPos="4.67" departSpeed="0.00" departDelay="0.00" arrival="-1.00" arrivalLane="" arrivalPos="-1.00" arrivalSpeed="-1.00" duration="69.00" routeLength="882.01" waitingTime="0.00" waitingCount="0" stopTime="0.00" timeLoss="7.30" rerouteNo="0" devices="tripinfo_straightW_55" vType="vehicleW_55" speedFactor="1.14" vaporized=""/>
    <tripinfo id="straightE_56" depart="31.00" departLane="edgeE_O_3" departPos="3.99" departSpeed="0.00" departDelay="0.00" arrival="-1.00" arrivalLane="" arrivalPos="-1.00" arrivalSpeed="-1.00" duration="69.00" routeLength="704.31" waitingTime="0.00" waitingCount="0" stopTime="0.00" timeLoss="6.45" rerouteNo="0" devices="tripinfo_straightE_56" vType="vehicleE_56" speedFactor="0.96" vaporized="end"/>
    <tripinfo id="straightS_57" depart="33.00" departLane="edgeS_O_4" departPos="5.20" departSpeed="0.00" departDelay="1.00" arrival="-1.00" arrivalLane="" arrivalPos="-1.00" arrivalSpeed="-1.00" duration="67.00" routeLength="663.14" waitingTime="20.00" waitingCount="1" stopTime="0.00" timeLoss="32.83" rerouteNo="0" devices="tripinfo_straightS_57" vType="vehicleS_57" speedFactor="0.92" vaporized="end"/>
    <tripinfo id="straightW_58" depart="34.00" departLane="edgeW_O_1" departPos="4.91" departSpeed="0.00" departDelay="2.00" arrival="-1.00" arrivalLane="" arrivalPos="-1.00" arrivalSpeed="-1.00" duration="66.00" routeLength="757.40" waitingTime="0.00" waitingCount="0" stopTime="0.00" timeLoss="6.93" rerouteNo="0" devices="tripinfo_straightW_58" vType="vehicleW_58" speedFactor="1.09" vaporized="end"/>
    <tripinfo id="leftN_59" depart="33.00" departLane="edgeN_O_5" departPos="4.04" departSpeed="0.00" departDelay="0.00" arrival="-1.00" arrivalLane="" arrivalPos="-1.00" arrivalSpeed="-1.00" duration="67.00" routeLength="755.74" waitingTime="22.00" waitingCount="1" stopTime="0.00" timeLoss="32.30" rerouteNo="0" devices="tripinfo_leftN_59" vType="vehicleN_59" speedFactor="1.03" vaporized="end"/>
    <tripinfo id="straightE_60" depart="34.00" departLane="edgeE_O_2" departPos="5.59" departSpeed="0.00" departDelay="0.00" arrival="-1.00" arrivalLane="" arrivalPos="-1.00" arrivalSpeed="-1.00" duration="66.00" routeLength="748.96" waitingTime="0.00" waitingCount="0" stopTime="0.00" timeLoss="7.25" rerouteNo="0" devices="tripinfo_straightE_60" vType="vehicleE_60" speedFactor="1.08" vaporized="end"/>
    <tripinfo id="rightN_61" depart="35.00" departLane="edgeN_O_1" departPos="5.24" departSpeed="0.00" departDelay="0.00" arrival="-1.00" arrivalLane="" arrivalPos="-1.00" arrivalSpeed="-1.00" duration="65.00" routeLength="760.77" waitingTime="22.00" waitingCount="1" stopTime="0.00" timeLoss="31.14" rerouteNo="0" devices="tripinfo_rightN_61" vType="vehicleN_61" speedFactor="1.06" vaporized="end"/>
    <tripinfo id="straightS_62" depart="39.00" departLane="edgeS_O_3" departPos="5.36" departSpeed="0.00" departDelay="0.00" arrival="-1.00" arrivalLane="" arrivalPos="-1.00" arrivalSpeed="-1.00" duration="61.00" routeLength="654.21" waitingTime="20.00" waitingCount="2" stopTime="0.00" timeLoss="32.65" rerouteNo="0" devices="tripinfo_straightS_62" vType="vehicleS_62" speedFactor="1.10" vaporized="end"/>
    <tripinfo id="straightN_63" depart="40.00" departLane="edgeN_O_3" departPos="5.59" departSpeed="0.00" departDelay="0.00" arrival="-1.00" arrivalLane="" arrivalPos="-1.00" arrivalSpeed="-1.00" duration="60.00" routeLength="775.91" waitingTime="14.00" waitingCount="1" stopTime="0.00" timeLoss="24.24" rerouteNo="0" devices="tripinfo_straightN_63" vType="vehicleN_63" speedFactor="1.03" vaporized="end"/>
    <tripinfo id="straightE_64" depart="40.00" departLane="edgeE_O_2" departPos="4.96" departSpeed="0.00" departDelay="0.00" arrival="-1.00" arrivalLane="" arrivalPos="-1.00" arrivalSpeed="-1.00" duration="60.00" routeLength="656.33" waitingTime="0.00" waitingCount="0" stopTime="0.00" timeLoss="5.75" rerouteNo="0" devices="tripinfo_straightE_64" vType="vehicleE_64" speedFactor="1.03" vaporized="end"/>
    <tripinfo id="rightE_65" depart="41.00" departLane="edgeE_O_1" departPos="5.02" departSpeed="0.00" departDelay="0.00" arrival="-1.00" arrivalLane="" arrivalPos="-1.00" arrivalSpeed="-1.00" duration="59.00" routeLength="641.65" waitingTime="0.00" waitingCount="0" stopTime="0.00" timeLoss="8.46" rerouteNo="0" devices="tripinfo_rightE_65" vType="vehicleE_65" speedFactor="1.08" vaporized="end"/>
    <tripinfo id="straightE_66" depart="43.00" departLane="edgeE_O_3" departPos="4.77" departSpeed="0.00" departDelay="0.00" arrival="-1.00" arrivalLane="" arrivalPos="-1.00" arrivalSpeed="-1.00" duration="57.00" routeLength="571.08" waitingTime="0.00" waitingCount="0" stopTime="0.00" timeLoss="5.34" rerouteNo="0" devices="tripinfo_straightE_66" vType="vehicleE_66" speedFactor="0.94" vaporized="end"/>
    <tripinfo id="straightS_67" depart="46.00" departLane="edgeS_O_3" departPos="5.54" departSpeed="0.00" departDelay="0.00" arrival="-1.00" arrivalLane="" arrivalPos="-1.00" arrivalSpeed="-1.00" duration="54.00" routeLength="646.49" waitingTime="9.00" waitingCount="1" stopTime="0.00" timeLoss="20.55" rerouteNo="0" devices="tripinfo_straightS_67" vType="vehicleS_67" speedFactor="0.92" vaporized="end"/>
    <tripinfo id="straightW_68" depart="46.00" departLane="edgeW_O_2" departPos="5.35" departSpeed="0.00" departDelay="0.00" arrival="-1.00" arrivalLane="" arrivalPos="-1.00" arrivalSpeed="-1.00" duration="54.00" routeLength="621.53" waitingTime="0.00" waitingCount="0" stopTime="0.00" timeLoss="4.88" rerouteNo="0" devices="tripinfo_straightW_68" vType="vehicleW_68" speedFactor="1.08" vaporized="end"/>
    <tripinfo id="straightE_69" depart="46.00" departLane="edgeE_O_2" departPos="4.03" departSpeed="0.00" departDelay="0.00" arrival="-1.00" arrivalLane="" arrivalPos="-1.00" arrivalSpeed="-1.00" duration="54.00" routeLength="500.93" waitingTime="0.00" waitingCount="0" stopTime="0.00" timeLoss="6.06" rerouteNo="0" devices="tripinfo_straightE_69" vType="vehicleE_69" speedFactor="0.89" vaporized="end"/>
    <tripinfo id="leftN_70" depart="47.00" departLane="edgeN_O_5" departPos="5.70" departSpeed="0.00" departDelay="0.00" arrival="-1.00" arrivalLane="" arrivalPos="-1.00" arrivalSpeed="-1.00" duration="53.00" routeLength="747.79" waitingTime="6.00" waitingCount="1" stopTime="0.00" timeLoss="16.61" rerouteNo="0" devices="tripinfo_leftN_70" vType="vehicleN_70" speedFactor="0.97" vaporized="end"/>