<?xml version="1.0" encoding="UTF-8"?>

<!-- generated on 2021-10-11 16:41:08 by Eclipse SUMO sumo Version 1.10.0
<configuration xmlns:xsi="http://www.w3.org/2001/XMLSchema-instance" xsi:noNamespaceSchemaLocation="http://sumo.dlr.de/xsd/sumoConfiguration.xsd">

    <input>
        <net-file value="data1/cross.net.xml"/>
        <route-files value="data1/cross.rou.xml"/>
    </input>

    <output>
        <tripinfo-output value="data1/tripinfo.xml"/>
        <tripinfo-output.write-unfinished value="true"/>
        <statistic-output value="statistics.xml"/>
    </output>

    <time>
        <begin value="0"/>
        <step-length value="1"/>
    </time>

    <processing>
        <threads value="5"/>
        <time-to-teleport value="-1"/>
    </processing>

    <report>
        <verbose value="true"/>
        <no-step-log value="true"/>
    </report>

    <traci_server>
        <remote-port value="62712"/>
    </traci_server>

    <gui_only>
        <tracker-interval value="1"/>
    </gui_only>

</configuration>
-->

<tripinfos xmlns:xsi="http://www.w3.org/2001/XMLSchema-instance" xsi:noNamespaceSchemaLocation="http://sumo.dlr.de/xsd/tripinfo_file.xsd">
    <tripinfo id="straightS_0" depart="0.00" departLane="edgeS_O_2" departPos="5.10" departSpeed="0.00" departDelay="0.00" arrival="86.00" arrivalLane="edgeN_I_0" arrivalPos="486.40" arrivalSpeed="11.33" duration="86.00" routeLength="994.90" waitingTime="0.00" waitingCount="0" stopTime="0.00" timeLoss="17.43" rerouteNo="0" devices="tripinfo_straightS_0" vType="vehicleS_0" speedFactor="1.06" vaporized=""/>
    <tripinfo id="straightE_2" depart="2.00" departLane="edgeE_O_0" departPos="5.10" departSpeed="0.00" departDelay="0.00" arrival="95.00" arrivalLane="edgeW_I_0" arrivalPos="486.40" arrivalSpeed="10.99" duration="93.00" routeLength="994.90" waitingTime="0.00" waitingCount="0" stopTime="0.00" timeLoss="21.65" rerouteNo="0" devices="tripinfo_straightE_2" vType="vehicleE_2" speedFactor="1.01" vaporized=""/>
    <tripinfo id="straightE_12" depart="16.00" departLane="edgeE_O_1" departPos="5.10" departSpeed="0.00" departDelay="0.00" arrival="101.00" arrivalLane="edgeW_I_0" arrivalPos="486.40" arrivalSpeed="11.37" duration="85.00" routeLength="994.90" waitingTime="0.00" waitingCount="0" stopTime="0.00" timeLoss="16.11" rerouteNo="0" devices="tripinfo_straightE_12" vType="vehicleE_12" speedFactor="1.05" vaporized=""/>
    <tripinfo id="rightE_13" depart="17.00" departLane="edgeE_O_0" departPos="5.10" departSpeed="0.00" departDelay="0.00" arrival="102.00" arrivalLane="edgeN_I_0" arrivalPos="486.40" arrivalSpeed="12.25" duration="85.00" routeLength="976.73" waitingTime="0.00" waitingCount="0" stopTime="0.00" timeLoss="21.60" rerouteNo="0" devices="tripinfo_rightE_13" vType="vehicleE_13" speedFactor="1.12" vaporized=""/>
    <tripinfo id="straightW_1" depart="0.00" departLane="edgeW_O_0" departPos="5.10" departSpeed="0.00" departDelay="0.00" arrival="103.00" arrivalLane="edgeE_I_0" arrivalPos="486.40" arrivalSpeed="9.92" duration="103.00" routeLength="994.90" waitingTime="1.00" waitingCount="1" stopTime="0.00" timeLoss="26.25" rerouteNo="0" devices="tripinfo_straightW_1" vType="vehicleW_1" speedFactor="0.94" vaporized=""/>
    <tripinfo id="rightW_11" depart="15.00" departLane="edgeW_O_0" departPos="5.10" departSpeed="0.00" departDelay="0.00" arrival="103.00" arrivalLane="edgeS_I_0" arrivalPos="486.40" arrivalSpeed="11.25" duration="88.00" routeLength="976.73" waitingTime="0.00" waitingCount="0" stopTime="0.00" timeLoss="18.89" rerouteNo="0" devices="tripinfo_rightW_11" vType="vehicleW_11" speedFactor="1.03" vaporized=""/>
    <tripinfo id="straightW_5" depart="6.00" departLane="edgeW_O_0" departPos="5.10" departSpeed="0.00" departDelay="0.00" arrival="107.00" arrivalLane="edgeE_I_0" arrivalPos="486.40" arrivalSpeed="9.12" duration="101.00" routeLength="994.90" waitingTime="0.00" waitingCount="0" stopTime="0.00" timeLoss="14.54" rerouteNo="0" devices="tripinfo_straightW_5" vType="vehicleW_5" speedFactor="0.83" vaporized=""/>
    <tripinfo id="uturnW_9" depart="14.00" departLane="edgeW_O_2" departPos="5.10" departSpeed="0.00" departDelay="0.00" arrival="116.00" arrivalLane="edgeW_I_0" arrivalPos="486.40" arrivalSpeed="9.26" duration="102.00" routeLength="972.38" waitingTime="0.00" waitingCount="0" stopTime="0.00" timeLoss="19.59" rerouteNo="0" devices="tripinfo_uturnW_9" vType="vehicleW_9" speedFactor="0.86" vaporized=""/>
    <tripinfo id="straightE_18" depart="23.00" departLane="edgeE_O_0" departPos="5.10" departSpeed="0.00" departDelay="0.00" arrival="116.00" arrivalLane="edgeW_I_1" arrivalPos="486.40" arrivalSpeed="10.02" duration="93.00" routeLength="994.90" waitingTime="0.00" waitingCount="0" stopTime="0.00" timeLoss="15.64" rerouteNo="0" devices="tripinfo_straightE_18" vType="vehicleE_18" speedFactor="0.94" vaporized=""/>
    <tripinfo id="uturnW_20" depart="24.00" departLane="edgeW_O_2" departPos="5.10" departSpeed="0.00" departDelay="0.00" arrival="117.00" arrivalLane="edgeW_I_2" arrivalPos="486.40" arrivalSpeed="11.02" duration="93.00" routeLength="972.38" waitingTime="0.00" waitingCount="0" stopTime="0.00" timeLoss="22.88" rerouteNo="0" devices="tripinfo_uturnW_20" vType="vehicleW_20" speedFactor="1.02" vaporized=""/>
    <tripinfo id="straightE_31" depart="37.00" departLane="edgeE_O_2" departPos="5.10" departSpeed="0.00" departDelay="3.00" arrival="118.00" arrivalLane="edgeW_I_1" arrivalPos="486.40" arrivalSpeed="12.39" duration="81.00" routeLength="994.90" waitingTime="0.00" waitingCount="0" stopTime="0.00" timeLoss="18.43" rerouteNo="0" devices="tripinfo_straightE_31" vType="vehicleE_31" speedFactor="1.15" vaporized=""/>
    <tripinfo id="leftE_30" depart="32.00" departLane="edgeE_O_2" departPos="5.10" departSpeed="0.00" departDelay="0.00" arrival="120.00" arrivalLane="edgeS_I_0" arrivalPos="486.40" arrivalSpeed="12.81" duration="88.00" routeLength="994.84" waitingTime="0.00" waitingCount="0" stopTime="0.00" timeLoss="26.01" rerouteNo="0" devices="tripinfo_leftE_30" vType="vehicleE_30" speedFactor="1.18" vaporized=""/>
    <tripinfo id="leftW_4" depart="5.00" departLane="edgeW_O_2" departPos="5.10" departSpeed="0.00" departDelay="0.00" arrival="121.00" arrivalLane="edgeN_I_0" arrivalPos="486.40" arrivalSpeed="11.09" duration="116.00" routeLength="994.84" waitingTime="19.00" waitingCount="1" stopTime="0.00" timeLoss="45.28" rerouteNo="0" devices="tripinfo_leftW_4" vType="vehicleW_4" speedFactor="1.03" vaporized=""/>
    <tripinfo id="straightW_27" depart="30.00" departLane="edgeW_O_0" departPos="5.10" departSpeed="0.00" departDelay="0.00" arrival="122.00" arrivalLane="edgeE_I_0" arrivalPos="486.40" arrivalSpeed="10.04" duration="92.00" routeLength="994.90" waitingTime="0.00" waitingCount="0" stopTime="0.00" timeLoss="16.39" rerouteNo="0" devices="tripinfo_straightW_27" vType="vehicleW_27" speedFactor="0.95" vaporized=""/>
    <tripinfo id="straightW_23" depart="29.00" departLane="edgeW_O_2" departPos="5.10" departSpeed="0.00" departDelay="3.00" arrival="124.00" arrivalLane="edgeE_I_0" arrivalPos="486.40" arrivalSpeed="9.76" duration="95.00" routeLength="994.90" waitingTime="0.00" waitingCount="0" stopTime="0.00" timeLoss="14.38" rerouteNo="0" devices="tripinfo_straightW_23" vType="vehicleW_23" speedFactor="0.89" vaporized=""/>
    <tripinfo id="leftW_33" depart="39.00" departLane="edgeW_O_2" departPos="5.10" departSpeed="0.00" departDelay="3.00" arrival="130.00" arrivalLane="edgeN_I_0" arrivalPos="486.40" arrivalSpeed="12.50" duration="91.00" routeLength="994.84" waitingTime="0.00" waitingCount="0" stopTime="0.00" timeLoss="28.82" rerouteNo="0" devices="tripinfo_leftW_33" vType="vehicleW_33" speedFactor="1.17" vaporized=""/>
    <tripinfo id="rightW_43" depart="45.00" departLane="edgeW_O_0" departPos="5.10" departSpeed="0.00" departDelay="0.00" arrival="133.00" arrivalLane="edgeS_I_0" arrivalPos="486.40" arrivalSpeed="11.19" duration="88.00" routeLength="976.73" waitingTime="0.00" waitingCount="0" stopTime="0.00" timeLoss="19.19" rerouteNo="0" devices="tripinfo_rightW_43" vType="vehicleW_43" speedFactor="1.04" vaporized=""/>
    <tripinfo id="uturnE_35" depart="42.00" departLane="edgeE_O_2" departPos="5.10" departSpeed="0.00" departDelay="5.00" arrival="134.00" arrivalLane="edgeE_I_0" arrivalPos="486.40" arrivalSpeed="11.10" duration="92.00" routeLength="972.38" waitingTime="0.00" waitingCount="0" stopTime="0.00" timeLoss="22.60" rerouteNo="0" devices="tripinfo_uturnE_35" vType="vehicleE_35" speedFactor="1.02" vaporized=""/>
    <tripinfo id="uturnW_29" depart="34.00" departLane="edgeW_O_2" departPos="5.10" departSpeed="0.00" departDelay="2.00" arrival="135.00" arrivalLane="edgeW_I_0" arrivalPos="486.40" arrivalSpeed="10.01" duration="101.00" routeLength="972.38" waitingTime="0.00" waitingCount="0" stopTime="0.00" timeLoss="24.80" rerouteNo="0" devices="tripinfo_uturnW_29" vType="vehicleW_29" speedFactor="0.93" vaporized=""/>
    <tripinfo id="rightN_6" depart="7.00" departLane="edgeN_O_0" departPos="5.10" departSpeed="0.00" departDelay="0.00" arrival="141.00" arrivalLane="edgeW_I_0" arrivalPos="486.40" arrivalSpeed="11.25" duration="134.00" routeLength="976.73" waitingTime="40.00" waitingCount="1" stopTime="0.00" timeLoss="66.01" rerouteNo="0" devices="tripinfo_rightN_6" vType="vehicleN_6" speedFactor="1.05" vaporized=""/>
    <tripinfo id="straightN_14" depart="18.00" departLane="edgeN_O_1" departPos="5.10" departSpeed="0.00" departDelay="0.00" arrival="146.00" arrivalLane="edgeS_I_0" arrivalPos="486.40" arrivalSpeed="10.84" duration="128.00" routeLength="994.90" waitingTime="29.00" waitingCount="1" stopTime="0.00" timeLoss="55.70" rerouteNo="0" devices="tripinfo_straightN_14" vType="vehicleN_14" speedFactor="0.99" vaporized=""/>
    <tripinfo id="rightN_40" depart="42.00" departLane="edgeN_O_0" departPos="5.10" departSpeed="0.00" departDelay="0.00" arrival="146.00" arrivalLane="edgeW_I_0" arrivalPos="486.40" arrivalSpeed="11.20" duration="104.00" routeLength="976.73" waitingTime="7.00" waitingCount="1" stopTime="0.00" timeLoss="35.13" rerouteNo="0" devices="tripinfo_rightN_40" vType="vehicleN_40" speedFactor="1.03" vaporized=""/>
    <tripinfo id="straightN_21" depart="25.00" departLane="edgeN_O_1" departPos="5.10" departSpeed="0.00" departDelay="0.00" arrival="147.00" arrivalLane="edgeS_I_1" arrivalPos="486.40" arrivalSpeed="11.11" duration="122.00" routeLength="994.90" waitingTime="18.00" waitingCount="1" stopTime="0.00" timeLoss="50.60" rerouteNo="0" devices="tripinfo_straightN_21" vType="vehicleN_21" speedFactor="1.01" vaporized=""/>
    <tripinfo id="straightS_22" depart="29.00" departLane="edgeS_O_2" departPos="5.10" departSpeed="0.00" departDelay="4.00" arrival="147.00" arrivalLane="edgeN_I_0" arrivalPos="486.40" arrivalSpeed="10.63" duration="118.00" routeLength="994.90" waitingTime="16.00" waitingCount="1" stopTime="0.00" timeLoss="43.83" rerouteNo="0" devices="tripinfo_straightS_22" vType="vehicleS_22" speedFactor="0.98" vaporized=""/>
    <tripinfo id="straightS_32" depart="45.00" departLane="edgeS_O_2" departPos="5.10" departSpeed="0.00" departDelay="10.00" arrival="147.00" arrivalLane="edgeN_I_1" arrivalPos="486.40" arrivalSpeed="10.73" duration="102.00" routeLength="994.90" waitingTime="0.00" waitingCount="0" stopTime="0.00" timeLoss="30.64" rerouteNo="0" devices="tripinfo_straightS_32" vType="vehicleS_32" speedFactor="1.01" vaporized=""/>
    <tripinfo id="rightS_36" depart="38.00" departLane="edgeS_O_0" departPos="5.10" departSpeed="0.00" departDelay="0.00" arrival="147.00" arrivalLane="edgeE_I_0" arrivalPos="486.40" arrivalSpeed="10.62" duration="109.00" routeLength="976.73" waitingTime="10.00" waitingCount="1" stopTime="0.00" timeLoss="35.83" rerouteNo="0" devices="tripinfo_rightS_36" vType="vehicleS_36" speedFactor="0.97" vaporized=""/>
    <tripinfo id="rightN_42" depart="47.00" departLane="edgeN_O_0" departPos="5.10" departSpeed="0.00" departDelay="3.00" arrival="147.00" arrivalLane="edgeW_I_2" arrivalPos="486.40" arrivalSpeed="11.73" duration="100.00" routeLength="976.73" waitingTime="3.00" waitingCount="1" stopTime="0.00" timeLoss="35.01" rerouteNo="0" devices="tripinfo_rightN_42" vType="vehicleN_42" speedFactor="1.09" vaporized=""/>
    <tripinfo id="rightN_17" depart="23.00" departLane="edgeN_O_0" departPos="5.10" departSpeed="0.00" departDelay="0.00" arrival="148.00" arrivalLane="edgeW_I_0" arrivalPos="486.40" arrivalSpeed="10.24" duration="125.00" routeLength="976.73" waitingTime="22.00" waitingCount="1" stopTime="0.00" timeLoss="48.89" rerouteNo="0" devices="tripinfo_rightN_17" vType="vehicleN_17" speedFactor="0.94" vaporized=""/>
    <tripinfo id="straightN_28" depart="31.00" departLane="edgeN_O_1" departPos="5.10" departSpeed="0.00" departDelay="0.00" arrival="148.00" arrivalLane="edgeS_I_1" arrivalPos="486.40" arrivalSpeed="11.70" duration="117.00" routeLength="994.90" waitingTime="11.00" waitingCount="2" stopTime="0.00" timeLoss="53.81" rerouteNo="0" devices="tripinfo_straightN_28" vType="vehicleN_28" speedFactor="1.13" vaporized=""/>
    <tripinfo id="straightS_7" depart="8.00" departLane="edgeS_O_2" departPos="5.10" departSpeed="0.00" departDelay="0.00" arrival="151.00" arrivalLane="edgeN_I_0" arrivalPos="486.40" arrivalSpeed="9.73" duration="143.00" routeLength="994.90" waitingTime="37.00" waitingCount="1" stopTime="0.00" timeLoss="61.36" rerouteNo="0" devices="tripinfo_straightS_7" vType="vehicleS_7" speedFactor="0.89" vaporized=""/>
    <tripinfo id="rightN_46" depart="52.00" departLane="edgeN_O_0" departPos="5.10" departSpeed="0.00" departDelay="1.00" arrival="152.00" arrivalLane="edgeW_I_0" arrivalPos="486.40" arrivalSpeed="10.86" duration="100.00" routeLength="976.73" waitingTime="0.00" waitingCount="0" stopTime="0.00" timeLoss="28.54" rerouteNo="0" devices="tripinfo_rightN_46" vType="vehicleN_46" speedFactor="1.00" vaporized=""/>
    <tripinfo id="straightS_48" depart="58.00" departLane="edgeS_O_0" departPos="5.10" departSpeed="0.00" departDelay="0.00" arrival="156.00" arrivalLane="edgeN_I_0" arrivalPos="486.40" arrivalSpeed="9.54" duration="98.00" routeLength="994.90" waitingTime="0.00" waitingCount="0" stopTime="0.00" timeLoss="15.88" rerouteNo="0" devices="tripinfo_straightS_48" vType="vehicleS_48" speedFactor="0.88" vaporized=""/>
    <tripinfo id="straightN_51" depart="66.00" departLane="edgeN_O_1" departPos="5.10" departSpeed="0.00" departDelay="0.00" arrival="156.00" arrivalLane="edgeS_I_1" arrivalPos="486.40" arrivalSpeed="12.82" duration="90.00" routeLength="994.90" waitingTime="0.00" waitingCount="0" stopTime="0.00" timeLoss="27.84" rerouteNo="0" devices="tripinfo_straightN_51" vType="vehicleN_51" speedFactor="1.17" vaporized=""/>
    <tripinfo id="leftN_3" depart="3.00" departLane="edgeN_O_2" departPos="5.10" departSpeed="0.00" departDelay="0.00" arrival="157.00" arrivalLane="edgeE_I_0" arrivalPos="486.40" arrivalSpeed="11.53" duration="154.00" routeLength="994.84" waitingTime="54.00" waitingCount="2" stopTime="0.00" timeLoss="87.18" rerouteNo="0" devices="tripinfo_leftN_3" vType="vehicleN_3" speedFactor="1.08" vaporized=""/>
    <tripinfo id="straightS_50" depart="61.00" departLane="edgeS_O_1" departPos="5.10" departSpeed="0.00" departDelay="0.00" arrival="159.00" arrivalLane="edgeN_I_0" arrivalPos="486.40" arrivalSpeed="9.31" duration="98.00" routeLength="994.90" waitingTime="0.00" waitingCount="0" stopTime="0.00" timeLoss="13.63" rerouteNo="0" devices="tripinfo_straightS_50" vType="vehicleS_50" speedFactor="0.85" vaporized=""/>
    <tripinfo id="straightS_54" depart="71.00" departLane="edgeS_O_1" departPos="5.10" departSpeed="0.00" departDelay="0.00" arrival="160.00" arrivalLane="edgeN_I_1" arrivalPos="486.40" arrivalSpeed="10.89" duration="89.00" routeLength="994.90" waitingTime="0.00" waitingCount="0" stopTime="0.00" timeLoss="17.39" rerouteNo="0" devices="tripinfo_straightS_54" vType="vehicleS_54" speedFactor="1.00" vaporized=""/>
    <tripinfo id="straightN_24" depart="32.00" departLane="edgeN_O_2" departPos="5.10" departSpeed="0.00" departDelay="5.00" arrival="161.00" arrivalLane="edgeS_I_0" arrivalPos="486.40" arrivalSpeed="8.70" duration="129.00" routeLength="994.90" waitingTime="10.00" waitingCount="2" stopTime="0.00" timeLoss="42.15" rerouteNo="0" devices="tripinfo_straightN_24" vType="vehicleN_24" speedFactor="0.83" vaporized=""/>
    <tripinfo id="rightN_55" depart="72.00" departLane="edgeN_O_0" departPos="5.10" departSpeed="0.00" departDelay="0.00" arrival="163.00" arrivalLane="edgeW_I_0" arrivalPos="486.40" arrivalSpeed="10.71" duration="91.00" routeLength="976.73" waitingTime="0.00" waitingCount="0" stopTime="0.00" timeLoss="19.35" rerouteNo="0" devices="tripinfo_rightN_55" vType="vehicleN_55" speedFactor="1.00" vaporized=""/>
    <tripinfo id="leftN_10" depart="15.00" departLane="edgeN_O_2" departPos="5.10" departSpeed="0.00" departDelay="0.00" arrival="166.00" arrivalLane="edgeE_I_0" arrivalPos="486.40" arrivalSpeed="11.66" duration="151.00" routeLength="994.84" waitingTime="44.00" waitingCount="3" stopTime="0.00" timeLoss="84.14" rerouteNo="0" devices="tripinfo_leftN_10" vType="vehicleN_10" speedFactor="1.09" vaporized=""/>
    <tripinfo id="uturnN_37" depart="39.00" departLane="edgeN_O_2" departPos="5.10" departSpeed="0.00" departDelay="0.00" arrival="168.00" arrivalLane="edgeN_I_0" arrivalPos="486.40" arrivalSpeed="12.91" duration="129.00" routeLength="972.38" waitingTime="16.00" waitingCount="3" stopTime="0.00" timeLoss="68.53" rerouteNo="0" devices="tripinfo_uturnN_37" vType="vehicleN_37" speedFactor="1.18" vaporized=""/>
    <tripinfo id="leftS_19" depart="24.00" departLane="edgeS_O_2" departPos="5.10" departSpeed="0.00" departDelay="0.00" arrival="169.00" arrivalLane="edgeW_I_0" arrivalPos="486.40" arrivalSpeed="12.61" duration="145.00" routeLength="994.84" waitingTime="43.00" waitingCount="2" stopTime="0.00" timeLoss="81.96" rerouteNo="0" devices="tripinfo_leftS_19" vType="vehicleS_19" speedFactor="1.16" vaporized=""/>
    <tripinfo id="leftS_8" depart="13.00" departLane="edgeS_O_2" departPos="5.10" departSpeed="0.00" departDelay="1.00" arrival="174.00" arrivalLane="edgeW_I_0" arrivalPos="486.40" arrivalSpeed="10.05" duration="161.00" routeLength="994.84" waitingTime="53.00" waitingCount="2" stopTime="0.00" timeLoss="84.04" rerouteNo="0" devices="tripinfo_leftS_8" vType="vehicleS_8" speedFactor="0.94" vaporized=""/>
    <tripinfo id="leftN_15" depart="21.00" departLane="edgeN_O_2" departPos="5.10" departSpeed="0.00" departDelay="0.00" arrival="175.00" arrivalLane="edgeE_I_0" arrivalPos="486.40" arrivalSpeed="10.17" duration="154.00" routeLength="994.84" waitingTime="36.00" waitingCount="3" stopTime="0.00" timeLoss="75.41" rerouteNo="0" devices="tripinfo_leftN_15" vType="vehicleN_15" speedFactor="0.93" vaporized=""/>
    <tripinfo id="uturnN_44" depart="50.00" departLane="edgeN_O_2" departPos="5.10" departSpeed="0.00" departDelay="0.00" arrival="176.00" arrivalLane="edgeN_I_0" arrivalPos="486.40" arrivalSpeed="11.37" duration="126.00" routeLength="972.38" waitingTime="10.00" waitingCount="2" stopTime="0.00" timeLoss="57.52" rerouteNo="0" devices="tripinfo_uturnN_44" vType="vehicleN_44" speedFactor="1.04" vaporized=""/>
    <tripinfo id="leftS_38" depart="50.00" departLane="edgeS_O_2" departPos="5.10" departSpeed="0.00" departDelay="10.00" arrival="178.00" arrivalLane="edgeW_I_1" arrivalPos="486.40" arrivalSpeed="12.12" duration="128.00" routeLength="994.84" waitingTime="20.00" waitingCount="2" stopTime="0.00" timeLoss="62.29" rerouteNo="0" devices="tripinfo_leftS_38" vType="vehicleS_38" speedFactor="1.10" vaporized=""/>
    <tripinfo id="leftN_16" depart="26.00" departLane="edgeN_O_2" departPos="5.10" departSpeed="0.00" departDelay="4.00" arrival="179.00" arrivalLane="edgeE_I_0" arrivalPos="486.40" arrivalSpeed="9.32" duration="153.00" routeLength="994.84" waitingTime="30.00" waitingCount="2" stopTime="0.00" timeLoss="70.33" rerouteNo="0" devices="tripinfo_leftN_16" vType="vehicleN_16" speedFactor="0.88" vaporized=""/>
    <tripinfo id="leftS_26" depart="39.00" departLane="edgeS_O_2" departPos="5.10" departSpeed="0.00" departDelay="11.00" arrival="181.00" arrivalLane="edgeW_I_1" arrivalPos="486.40" arrivalSpeed="10.09" duration="142.00" routeLength="994.84" waitingTime="25.00" waitingCount="2" stopTime="0.00" timeLoss="63.20" rerouteNo="0" devices="tripinfo_leftS_26" vType="vehicleS_26" speedFactor="0.92" vaporized=""/>
    <tripinfo id="leftN_52" depart="68.00" departLane="edgeN_O_2" departPos="5.10" departSpeed="0.00" departDelay="0.00" arrival="181.00" arrivalLane="edgeE_I_0" arrivalPos="486.40" arrivalSpeed="10.89" duration="113.00" routeLength="994.84" waitingTime="0.00" waitingCount="0" stopTime="0.00" timeLoss="41.30" rerouteNo="0" devices="tripinfo_leftN_52" vType="vehicleN_52" speedFactor="1.02" vaporized=""/>
    <tripinfo id="leftS_25" depart="34.00" departLane="edgeS_O_2" departPos="5.10" departSpeed="0.00" departDelay="7.00" arrival="182.00" arrivalLane="edgeW_I_0" arrivalPos="486.40" arrivalSpeed="9.46" duration="148.00" routeLength="994.84" waitingTime="29.00" waitingCount="2" stopTime="0.00" timeLoss="64.57" rerouteNo="0" devices="tripinfo_leftS_25" vType="vehicleS_25" speedFactor="0.87" vaporized=""/>
    <tripinfo id="uturnW_57" depart="73.00" departLane="edgeW_O_2" departPos="5.10" departSpeed="0.00" departDelay="0.00" arrival="186.00" arrivalLane="edgeW_I_1" arrivalPos="486.40" arrivalSpeed="12.23" duration="113.00" routeLength="972.38" waitingTime="19.00" waitingCount="1" stopTime="0.00" timeLoss="50.59" rerouteNo="0" devices="tripinfo_uturnW_57" vType="vehicleW_57" speedFactor="1.14" vaporized=""/>
    <tripinfo id="uturnW_34" depart="45.00" departLane="edgeW_O_2" departPos="5.10" departSpeed="0.00" departDelay="8.00" arrival="188.00" arrivalLane="edgeW_I_0" arrivalPos="486.40" arrivalSpeed="10.74" duration="143.00" routeLength="972.38" waitingTime="46.00" waitingCount="1" stopTime="0.00" timeLoss="71.85" rerouteNo="0" devices="tripinfo_uturnW_34" vType="vehicleW_34" speedFactor="0.99" vaporized=""/>
    <tripinfo id="uturnW_60" depart="78.00" departLane="edgeW_O_2" departPos="5.10" departSpeed="0.00" departDelay="0.00" arrival="191.00" arrivalLane="edgeW_I_0" arrivalPos="486.40" arrivalSpeed="11.56" duration="113.00" routeLength="972.38" waitingTime="16.00" waitingCount="1" stopTime="0.00" timeLoss="47.16" rerouteNo="0" devices="tripinfo_uturnW_60" vType="vehicleW_60" speedFactor="1.08" vaporized=""/>
    <tripinfo id="rightW_62" depart="83.00" departLane="edgeW_O_0" departPos="5.10" departSpeed="0.00" departDelay="0.00" arrival="191.00" arrivalLane="edgeS_I_0" arrivalPos="486.40" arrivalSpeed="10.91" duration="108.00" routeLength="976.73" waitingTime="9.00" waitingCount="1" stopTime="0.00" timeLoss="37.83" rerouteNo="0" devices="tripinfo_rightW_62" vType="vehicleW_62" speedFactor="1.02" vaporized=""/>
    <tripinfo id="uturnE_39" depart="47.00" departLane="edgeE_O_2" departPos="5.10" departSpeed="0.00" departDelay="6.00" arrival="193.00" arrivalLane="edgeE_I_0" arrivalPos="486.40" arrivalSpeed="9.89" duration="146.00" routeLength="972.38" waitingTime="42.00" waitingCount="1" stopTime="0.00" timeLoss="66.72" rerouteNo="0" devices="tripinfo_uturnE_39" vType="vehicleE_39" speedFactor="0.90" vaporized=""/>
    <tripinfo id="rightE_56" depart="72.00" departLane="edgeE_O_0" departPos="5.10" departSpeed="0.00" departDelay="0.00" arrival="194.00" arrivalLane="edgeN_I_0" arrivalPos="486.40" arrivalSpeed="9.55" duration="122.00" routeLength="976.73" waitingTime="17.00" waitingCount="1" stopTime="0.00" timeLoss="42.33" rerouteNo="0" devices="tripinfo_rightE_56" vType="vehicleE_56" speedFactor="0.90" vaporized=""/>
    <tripinfo id="uturnE_58" depart="76.00" departLane="edgeE_O_2" departPos="5.10" departSpeed="0.00" departDelay="0.00" arrival="194.00" arrivalLane="edgeE_I_1" arrivalPos="486.40" arrivalSpeed="10.98" duration="118.00" routeLength="972.38" waitingTime="17.00" waitingCount="1" stopTime="0.00" timeLoss="47.93" rerouteNo="0" devices="tripinfo_uturnE_58" vType="vehicleE_58" speedFactor="1.02" vaporized=""/>
    <tripinfo id="rightW_75" depart="104.00" departLane="edgeW_O_0" departPos="5.10" departSpeed="0.00" departDelay="0.00" arrival="196.00" arrivalLane="edgeS_I_1" arrivalPos="486.40" arrivalSpeed="10.59" duration="92.00" routeLength="976.73" waitingTime="0.00" waitingCount="0" stopTime="0.00" timeLoss="19.98" rerouteNo="0" devices="tripinfo_rightW_75" vType="vehicleW_75" speedFactor="0.98" vaporized=""/>
    <tripinfo id="straightW_49" depart="58.00" departLane="edgeW_O_1" departPos="5.10" departSpeed="0.00" departDelay="0.00" arrival="198.00" arrivalLane="edgeE_I_0" arrivalPos="486.40" arrivalSpeed="9.15" duration="140.00" routeLength="994.90" waitingTime="32.00" waitingCount="1" stopTime="0.00" timeLoss="55.40" rerouteNo="0" devices="tripinfo_straightW_49" vType="vehicleW_49" speedFactor="0.85" vaporized=""/>
    <tripinfo id="rightW_66" depart="88.00" departLane="edgeW_O_0" departPos="5.10" departSpeed="0.00" departDelay="2.00" arrival="198.00" arrivalLane="edgeS_I_0" arrivalPos="486.40" arrivalSpeed="9.78" duration="110.00" routeLength="976.73" waitingTime="4.00" waitingCount="1" stopTime="0.00" timeLoss="30.85" rerouteNo="0" devices="tripinfo_rightW_66" vType="vehicleW_66" speedFactor="0.91" vaporized=""/>
    <tripinfo id="straightE_74" depart="103.00" departLane="edgeE_O_2" departPos="5.10" departSpeed="0.00" departDelay="0.00" arrival="202.00" arrivalLane="edgeW_I_0" arrivalPos="486.40" arrivalSpeed="10.36" duration="99.00" routeLength="994.90" waitingTime="0.00" waitingCount="0" stopTime="0.00" timeLoss="23.17" rerouteNo="0" devices="tripinfo_straightE_74" vType="vehicleE_74" speedFactor="0.96" vaporized=""/>
    <tripinfo id="rightW_77" depart="110.00" departLane="edgeW_O_0" departPos="5.10" departSpeed="0.00" departDelay="0.00" arrival="202.00" arrivalLane="edgeS_I_0" arrivalPos="486.40" arrivalSpeed="10.80" duration="92.00" routeLength="976.73" waitingTime="0.00" waitingCount="0" stopTime="0.00" timeLoss="19.70" rerouteNo="0" devices="tripinfo_rightW_77" vType="vehicleW_77" speedFactor="0.98" vaporized=""/>
    <tripinfo id="uturnW_79" depart="114.00" departLane="edgeW_O_2" departPos="5.10" departSpeed="0.00" departDelay="0.00" arrival="203.00" arrivalLane="edgeW_I_1" arrivalPos="486.40" arrivalSpeed="11.86" duration="89.00" routeLength="972.38" waitingTime="0.00" waitingCount="0" stopTime="0.00" timeLoss="23.46" rerouteNo="0" devices="tripinfo_uturnW_79" vType="vehicleW_79" speedFactor="1.09" vaporized=""/>
    <tripinfo id="uturnW_84" depart="119.00" departLane="edgeW_O_2" departPos="5.10" departSpeed="0.00" departDelay="2.00" arrival="206.00" arrivalLane="edgeW_I_1" arrivalPos="486.40" arrivalSpeed="12.34" duration="87.00" routeLength="972.38" waitingTime="0.00" waitingCount="0" stopTime="0.00" timeLoss="24.94" rerouteNo="0" devices="tripinfo_uturnW_84" vType="vehicleW_84" speedFactor="1.15" vaporized=""/>
    <tripinfo id="straightE_81" depart="119.00" departLane="edgeE_O_2" departPos="5.10" departSpeed="0.00" departDelay="4.00" arrival="208.00" arrivalLane="edgeW_I_0" arrivalPos="486.40" arrivalSpeed="10.79" duration="89.00" routeLength="994.90" waitingTime="0.00" waitingCount="0" stopTime="0.00" timeLoss="17.01" rerouteNo="0" devices="tripinfo_straightE_81" vType="vehicleE_81" speedFactor="1.00" vaporized=""/>
    <tripinfo id="uturnE_80" depart="114.00" departLane="edgeE_O_2" departPos="5.10" departSpeed="0.00" departDelay="0.00" arrival="210.00" arrivalLane="edgeE_I_0" arrivalPos="486.40" arrivalSpeed="11.28" duration="96.00" routeLength="972.38" waitingTime="0.00" waitingCount="0" stopTime="0.00" timeLoss="27.46" rerouteNo="0" devices="tripinfo_uturnE_80" vType="vehicleE_80" speedFactor="1.03" vaporized=""/>
    <tripinfo id="leftE_47" depart="53.00" departLane="edgeE_O_2" departPos="5.10" departSpeed="0.00" departDelay="0.00" arrival="214.00" arrivalLane="edgeS_I_0" arrivalPos="486.40" arrivalSpeed="9.60" duration="161.00" routeLength="994.84" waitingTime="47.00" waitingCount="2" stopTime="0.00" timeLoss="80.34" rerouteNo="0" devices="tripinfo_leftE_47" vType="vehicleE_47" speedFactor="0.90" vaporized=""/>
    <tripinfo id="leftE_67" depart="90.00" departLane="edgeE_O_2" departPos="5.10" departSpeed="0.00" departDelay="0.00" arrival="215.00" arrivalLane="edgeS_I_1" arrivalPos="486.40" arrivalSpeed="9.86" duration="125.00" routeLength="994.84" waitingTime="11.00" waitingCount="2" stopTime="0.00" timeLoss="45.91" rerouteNo="0" devices="tripinfo_leftE_67" vType="vehicleE_67" speedFactor="0.91" vaporized=""/>
    <tripinfo id="leftE_82" depart="124.00" departLane="edgeE_O_2" departPos="5.10" departSpeed="0.00" departDelay="8.00" arrival="216.00" arrivalLane="edgeS_I_0" arrivalPos="486.40" arrivalSpeed="11.02" duration="92.00" routeLength="994.84" waitingTime="0.00" waitingCount="0" stopTime="0.00" timeLoss="20.39" rerouteNo="0" devices="tripinfo_leftE_82" vType="vehicleE_82" speedFactor="1.02" vaporized=""/>
    <tripinfo id="straightW_95" depart="134.00" departLane="edgeW_O_1" departPos="5.10" departSpeed="0.00" departDelay="0.00" arrival="219.00" arrivalLane="edgeE_I_0" arrivalPos="486.40" arrivalSpeed="11.34" duration="85.00" routeLength="994.90" waitingTime="0.00" waitingCount="0" stopTime="0.00" timeLoss="16.29" rerouteNo="0" devices="tripinfo_straightW_95" vType="vehicleW_95" speedFactor="1.06" vaporized=""/>
    <tripinfo id="leftW_64" depart="85.00" departLane="edgeW_O_2" departPos="5.10" departSpeed="0.00" departDelay="0.00" arrival="220.00" arrivalLane="edgeN_I_0" arrivalPos="486.40" arrivalSpeed="10.14" duration="135.00" routeLength="994.84" waitingTime="23.00" waitingCount="2" stopTime="0.00" timeLoss="57.88" rerouteNo="0" devices="tripinfo_leftW_64" vType="vehicleW_64" speedFactor="0.94" vaporized=""/>