<?xml version="1.0" encoding="UTF-8"?>

<!-- generated on 2021-11-10 18:12:02 by Eclipse SUMO sumo Version 1.10.0
<configuration xmlns:xsi="http://www.w3.org/2001/XMLSchema-instance" xsi:noNamespaceSchemaLocation="http://sumo.dlr.de/xsd/sumoConfiguration.xsd">

    <input>
        <net-file value="data/cross.net.xml"/>
        <route-files value="data/cross.rou.xml"/>
        <additional-files value="data/cross.tls.xml"/>
    </input>

    <output>
        <tripinfo-output value="data/tripinfo.xml"/>
        <tripinfo-output.write-unfinished value="true"/>
    </output>

    <time>
        <begin value="0"/>
        <step-length value="1"/>
    </time>

    <processing>
        <threads value="5"/>
        <time-to-teleport value="-1"/>
    </processing>

    <report>
        <verbose value="true"/>
        <no-warnings value="true"/>
        <no-step-log value="true"/>
    </report>

    <traci_server>
        <remote-port value="65139"/>
    </traci_server>

    <gui_only>
        <gui-settings-file value="data/viewsettings.xml"/>
        <quit-on-end value="true"/>
        <tracker-interval value="1"/>
    </gui_only>

</configuration>
-->

<tripinfos xmlns:xsi="http://www.w3.org/2001/XMLSchema-instance" xsi:noNamespaceSchemaLocation="http://sumo.dlr.de/xsd/tripinfo_file.xsd">
    <tripinfo id="leftE_1" depart="0.00" departLane="edgeE_O_5" departPos="4.40" departSpeed="0.00" departDelay="0.00" arrival="64.00" arrivalLane="edgeS_I_2" arrivalPos="379.30" arrivalSpeed="15.91" duration="64.00" routeLength="794.02" waitingTime="12.00" waitingCount="1" stopTime="0.00" timeLoss="24.75" rerouteNo="0" devices="tripinfo_leftE_1" vType="vehicleE_1" speedFactor="1.07" vaporized=""/>
    <tripinfo id="straightS_0" depart="0.00" departLane="edgeS_O_1" departPos="4.38" departSpeed="0.00" departDelay="0.00" arrival="74.00" arrivalLane="edgeN_I_1" arrivalPos="779.30" arrivalSpeed="15.89" duration="74.00" routeLength="1195.62" waitingTime="0.00" waitingCount="0" stopTime="0.00" timeLoss="7.34" rerouteNo="0" devices="tripinfo_straightS_0" vType="vehicleS_0" speedFactor="1.04" vaporized=""/>
    <tripinfo id="uturnE_43" depart="35.00" departLane="edgeE_O_5" departPos="4.30" departSpeed="0.00" departDelay="0.00" arrival="84.00" arrivalLane="edgeE_I_5" arrivalPos="385.70" arrivalSpeed="18.48" duration="49.00" routeLength="771.78" waitingTime="0.00" waitingCount="0" stopTime="0.00" timeLoss="12.03" rerouteNo="0" devices="tripinfo_uturnE_43" vType="vehicleE_43" speedFactor="1.00" vaporized=""/>
    <tripinfo id="uturnW_3" depart="1.00" departLane="edgeW_O_5" departPos="4.57" departSpeed="0.00" departDelay="0.00" arrival="89.00" arrivalLane="edgeW_I_3" arrivalPos="885.70" arrivalSpeed="21.15" duration="88.00" routeLength="1771.51" waitingTime="0.00" waitingCount="0" stopTime="0.00" timeLoss="16.25" rerouteNo="0" devices="tripinfo_uturnW_3" vType="vehicleW_3" speedFactor="1.16" vaporized=""/>
    <tripinfo id="leftW_10" depart="9.00" departLane="edgeW_O_5" departPos="4.18" departSpeed="0.00" departDelay="0.00" arrival="93.00" arrivalLane="edgeN_I_1" arrivalPos="779.30" arrivalSpeed="18.33" duration="84.00" routeLength="1694.24" waitingTime="0.00" waitingCount="0" stopTime="0.00" timeLoss="10.13" rerouteNo="0" devices="tripinfo_leftW_10" vType="vehicleW_10" speedFactor="1.18" vaporized=""/>
    <tripinfo id="straightW_15" depart="15.00" departLane="edgeW_O_2" departPos="4.12" departSpeed="0.00" departDelay="0.00" arrival="96.00" arrivalLane="edgeE_I_2" arrivalPos="385.70" arrivalSpeed="20.10" duration="81.00" routeLength="1295.88" waitingTime="17.00" waitingCount="1" stopTime="0.00" timeLoss="34.32" rerouteNo="0" devices="tripinfo_straightW_15" vType="vehicleW_15" speedFactor="1.22" vaporized=""/>
    <tripinfo id="straightW_25" depart="23.00" departLane="edgeW_O_4" departPos="5.65" departSpeed="0.00" departDelay="0.00" arrival="96.00" arrivalLane="edgeE_I_3" arrivalPos="385.70" arrivalSpeed="20.00" duration="73.00" routeLength="1294.35" waitingTime="5.00" waitingCount="1" stopTime="0.00" timeLoss="21.66" rerouteNo="0" devices="tripinfo_straightW_25" vType="vehicleW_25" speedFactor="1.12" vaporized=""/>
    <tripinfo id="straightW_31" depart="26.00" departLane="edgeW_O_3" departPos="4.12" departSpeed="0.00" departDelay="0.00" arrival="97.00" arrivalLane="edgeE_I_4" arrivalPos="385.70" arrivalSpeed="18.27" duration="71.00" routeLength="1295.88" waitingTime="0.00" waitingCount="0" stopTime="0.00" timeLoss="15.79" rerouteNo="0" devices="tripinfo_straightW_31" vType="vehicleW_31" speedFactor="1.02" vaporized=""/>
    <tripinfo id="leftE_58" depart="59.00" departLane="edgeE_O_5" departPos="4.92" departSpeed="0.00" departDelay="0.00" arrival="109.00" arrivalLane="edgeS_I_1" arrivalPos="379.30" arrivalSpeed="14.45" duration="50.00" routeLength="793.50" waitingTime="0.00" waitingCount="0" stopTime="0.00" timeLoss="8.22" rerouteNo="0" devices="tripinfo_leftE_58" vType="vehicleE_58" speedFactor="1.01" vaporized=""/>
    <tripinfo id="straightW_53" depart="53.00" departLane="edgeW_O_3" departPos="4.92" departSpeed="0.00" departDelay="0.00" arrival="115.00" arrivalLane="edgeE_I_2" arrivalPos="385.70" arrivalSpeed="19.24" duration="62.00" routeLength="1295.08" waitingTime="0.00" waitingCount="0" stopTime="0.00" timeLoss="7.30" rerouteNo="0" devices="tripinfo_straightW_53" vType="vehicleW_53" speedFactor="1.05" vaporized=""/>
    <tripinfo id="straightE_35" depart="29.00" departLane="edgeE_O_3" departPos="4.22" departSpeed="0.00" departDelay="0.00" arrival="123.00" arrivalLane="edgeW_I_3" arrivalPos="885.70" arrivalSpeed="19.51" duration="94.00" routeLength="1295.78" waitingTime="18.00" waitingCount="1" stopTime="0.00" timeLoss="32.67" rerouteNo="0" devices="tripinfo_straightE_35" vType="vehicleE_35" speedFactor="1.04" vaporized=""/>
    <tripinfo id="rightW_54" depart="54.00" departLane="edgeW_O_1" departPos="4.98" departSpeed="0.00" departDelay="0.00" arrival="123.00" arrivalLane="edgeS_I_1" arrivalPos="379.30" arrivalSpeed="16.15" duration="69.00" routeLength="1270.18" waitingTime="0.00" waitingCount="0" stopTime="0.00" timeLoss="10.80" rerouteNo="0" devices="tripinfo_rightW_54" vType="vehicleW_54" speedFactor="1.04" vaporized=""/>
    <tripinfo id="straightE_14" depart="14.00" departLane="edgeE_O_2" departPos="5.68" departSpeed="0.00" departDelay="0.00" arrival="125.00" arrivalLane="edgeW_I_3" arrivalPos="885.70" arrivalSpeed="18.53" duration="111.00" routeLength="1294.32" waitingTime="34.00" waitingCount="1" stopTime="0.00" timeLoss="48.88" rerouteNo="0" devices="tripinfo_straightE_14" vType="vehicleE_14" speedFactor="1.02" vaporized=""/>
    <tripinfo id="straightE_20" depart="21.00" departLane="edgeE_O_2" departPos="4.58" departSpeed="0.00" departDelay="0.00" arrival="126.00" arrivalLane="edgeW_I_1" arrivalPos="885.70" arrivalSpeed="17.72" duration="105.00" routeLength="1295.42" waitingTime="26.00" waitingCount="1" stopTime="0.00" timeLoss="41.46" rerouteNo="0" devices="tripinfo_straightE_20" vType="vehicleE_20" speedFactor="1.00" vaporized=""/>
    <tripinfo id="uturnW_22" depart="22.00" departLane="edgeW_O_5" departPos="5.43" departSpeed="0.00" departDelay="0.00" arrival="126.00" arrivalLane="edgeW_I_2" arrivalPos="885.70" arrivalSpeed="15.43" duration="104.00" routeLength="1770.65" waitingTime="0.00" waitingCount="0" stopTime="0.00" timeLoss="12.42" rerouteNo="0" devices="tripinfo_uturnW_22" vType="vehicleW_22" speedFactor="0.90" vaporized=""/>
    <tripinfo id="straightE_61" depart="63.00" departLane="edgeE_O_4" departPos="5.07" departSpeed="0.00" departDelay="0.00" arrival="130.00" arrivalLane="edgeW_I_2" arrivalPos="885.70" arrivalSpeed="19.46" duration="67.00" routeLength="1294.93" waitingTime="0.00" waitingCount="0" stopTime="0.00" timeLoss="8.38" rerouteNo="0" devices="tripinfo_straightE_61" vType="vehicleE_61" speedFactor="1.08" vaporized=""/>
    <tripinfo id="leftW_36" depart="30.00" departLane="edgeW_O_5" departPos="5.51" departSpeed="0.00" departDelay="0.00" arrival="133.00" arrivalLane="edgeN_I_2" arrivalPos="779.30" arrivalSpeed="16.05" duration="103.00" routeLength="1692.91" waitingTime="0.00" waitingCount="0" stopTime="0.00" timeLoss="18.68" rerouteNo="0" devices="tripinfo_leftW_36" vType="vehicleW_36" speedFactor="1.04" vaporized=""/>
    <tripinfo id="rightE_39" depart="32.00" departLane="edgeE_O_1" departPos="4.30" departSpeed="0.00" departDelay="0.00" arrival="134.00" arrivalLane="edgeN_I_1" arrivalPos="779.30" arrivalSpeed="14.55" duration="102.00" routeLength="1170.86" waitingTime="15.00" waitingCount="1" stopTime="0.00" timeLoss="30.79" rerouteNo="0" devices="tripinfo_rightE_39" vType="vehicleE_39" speedFactor="0.93" vaporized=""/>
    <tripinfo id="rightW_66" depart="67.00" departLane="edgeW_O_1" departPos="4.31" departSpeed="0.00" departDelay="0.00" arrival="134.00" arrivalLane="edgeS_I_1" arrivalPos="379.30" arrivalSpeed="16.35" duration="67.00" routeLength="1270.85" waitingTime="0.00" waitingCount="0" stopTime="0.00" timeLoss="10.99" rerouteNo="0" devices="tripinfo_rightW_66" vType="vehicleW_66" speedFactor="1.09" vaporized=""/>
    <tripinfo id="leftW_48" depart="45.00" departLane="edgeW_O_5" departPos="5.68" departSpeed="0.00" departDelay="0.00" arrival="137.00" arrivalLane="edgeN_I_2" arrivalPos="779.30" arrivalSpeed="15.87" duration="92.00" routeLength="1692.74" waitingTime="0.00" waitingCount="0" stopTime="0.00" timeLoss="10.31" rerouteNo="0" devices="tripinfo_leftW_48" vType="vehicleW_48" speedFactor="1.07" vaporized=""/>
    <tripinfo id="leftE_83" depart="84.00" departLane="edgeE_O_5" departPos="4.70" departSpeed="0.00" departDelay="0.00" arrival="137.00" arrivalLane="edgeS_I_2" arrivalPos="379.30" arrivalSpeed="15.86" duration="53.00" routeLength="793.72" waitingTime="0.00" waitingCount="0" stopTime="0.00" timeLoss="12.16" rerouteNo="0" devices="tripinfo_leftE_83" vType="vehicleE_83" speedFactor="1.04" vaporized=""/>
    <tripinfo id="rightE_11" depart="11.00" departLane="edgeE_O_1" departPos="5.28" departSpeed="0.00" departDelay="0.00" arrival="140.00" arrivalLane="edgeN_I_1" arrivalPos="779.30" arrivalSpeed="12.41" duration="129.00" routeLength="1169.88" waitingTime="33.00" waitingCount="1" stopTime="0.00" timeLoss="47.14" rerouteNo="0" devices="tripinfo_rightE_11" vType="vehicleE_11" speedFactor="0.81" vaporized=""/>
    <tripinfo id="uturnE_95" depart="92.00" departLane="edgeE_O_5" departPos="4.02" departSpeed="0.00" departDelay="0.00" arrival="141.00" arrivalLane="edgeE_I_5" arrivalPos="385.70" arrivalSpeed="18.81" duration="49.00" routeLength="772.06" waitingTime="0.00" waitingCount="0" stopTime="0.00" timeLoss="13.38" rerouteNo="0" devices="tripinfo_uturnE_95" vType="vehicleE_95" speedFactor="1.04" vaporized=""/>
    <tripinfo id="leftW_27" depart="24.00" departLane="edgeW_O_5" departPos="5.47" departSpeed="0.00" departDelay="0.00" arrival="143.00" arrivalLane="edgeN_I_1" arrivalPos="779.30" arrivalSpeed="12.55" duration="119.00" routeLength="1692.95" waitingTime="0.00" waitingCount="0" stopTime="0.00" timeLoss="11.33" rerouteNo="0" devices="tripinfo_leftW_27" vType="vehicleW_27" speedFactor="0.81" vaporized=""/>
    <tripinfo id="straightE_81" depart="81.00" departLane="edgeE_O_2" departPos="5.15" departSpeed="0.00" departDelay="0.00" arrival="144.00" arrivalLane="edgeW_I_1" arrivalPos="885.70" arrivalSpeed="20.85" duration="63.00" routeLength="1294.85" waitingTime="0.00" waitingCount="0" stopTime="0.00" timeLoss="6.93" rerouteNo="0" devices="tripinfo_straightE_81" vType="vehicleE_81" speedFactor="1.14" vaporized=""/>
    <tripinfo id="straightW_94" depart="92.00" departLane="edgeW_O_3" departPos="5.01" departSpeed="0.00" departDelay="0.00" arrival="151.00" arrivalLane="edgeE_I_2" arrivalPos="385.70" arrivalSpeed="20.18" duration="59.00" routeLength="1294.99" waitingTime="0.00" waitingCount="0" stopTime="0.00" timeLoss="6.69" rerouteNo="0" devices="tripinfo_straightW_94" vType="vehicleW_94" speedFactor="1.10" vaporized=""/>
    <tripinfo id="rightE_82" depart="82.00" departLane="edgeE_O_1" departPos="4.80" departSpeed="0.00" departDelay="0.00" arrival="152.00" arrivalLane="edgeN_I_1" arrivalPos="779.30" arrivalSpeed="17.10" duration="70.00" routeLength="1170.36" waitingTime="0.00" waitingCount="0" stopTime="0.00" timeLoss="10.07" rerouteNo="0" devices="tripinfo_rightE_82" vType="vehicleE_82" speedFactor="1.09" vaporized=""/>
    <tripinfo id="rightW_88" depart="88.00" departLane="edgeW_O_1" departPos="4.85" departSpeed="0.00" departDelay="0.00" arrival="160.00" arrivalLane="edgeS_I_1" arrivalPos="379.30" arrivalSpeed="14.18" duration="72.00" routeLength="1270.31" waitingTime="0.00" waitingCount="0" stopTime="0.00" timeLoss="9.95" rerouteNo="0" devices="tripinfo_rightW_88" vType="vehicleW_88" speedFactor="0.97" vaporized=""/>
    <tripinfo id="straightW_103" depart="99.00" departLane="edgeW_O_2" departPos="4.61" departSpeed="0.00" departDelay="0.00" arrival="169.00" arrivalLane="edgeE_I_2" arrivalPos="385.70" arrivalSpeed="16.67" duration="70.00" routeLength="1295.39" waitingTime="0.00" waitingCount="0" stopTime="0.00" timeLoss="7.07" rerouteNo="0" devices="tripinfo_straightW_103" vType="vehicleW_103" speedFactor="0.91" vaporized=""/>
    <tripinfo id="leftE_123" depart="123.00" departLane="edgeE_O_5" departPos="4.74" departSpeed="0.00" departDelay="0.00" arrival="171.00" arrivalLane="edgeS_I_2" arrivalPos="379.30" arrivalSpeed="16.98" duration="48.00" routeLength="793.68" waitingTime="0.00" waitingCount="0" stopTime="0.00" timeLoss="9.34" rerouteNo="0" devices="tripinfo_leftE_123" vType="vehicleE_123" speedFactor="1.10" vaporized=""/>
    <tripinfo id="straightE_89" depart="89.00" departLane="edgeE_O_2" departPos="5.02" departSpeed="0.00" departDelay="0.00" arrival="174.00" arrivalLane="edgeW_I_1" arrivalPos="885.70" arrivalSpeed="15.02" duration="85.00" routeLength="1294.98" waitingTime="0.00" waitingCount="0" stopTime="0.00" timeLoss="7.91" rerouteNo="0" devices="tripinfo_straightE_89" vType="vehicleE_89" speedFactor="0.82" vaporized=""/>
    <tripinfo id="leftE_130" depart="129.00" departLane="edgeE_O_5" departPos="4.27" departSpeed="0.00" departDelay="0.00" arrival="179.00" arrivalLane="edgeS_I_1" arrivalPos="379.30" arrivalSpeed="14.58" duration="50.00" routeLength="794.15" waitingTime="0.00" waitingCount="0" stopTime="0.00" timeLoss="8.10" rerouteNo="0" devices="tripinfo_leftE_130" vType="vehicleE_130" speedFactor="1.02" vaporized=""/>
    <tripinfo id="straightW_114" depart="114.00" departLane="edgeW_O_3" departPos="5.09" departSpeed="0.00" departDelay="0.00" arrival="182.00" arrivalLane="edgeE_I_2" arrivalPos="385.70" arrivalSpeed="17.57" duration="68.00" routeLength="1294.91" waitingTime="0.00" waitingCount="0" stopTime="0.00" timeLoss="7.02" rerouteNo="0" devices="tripinfo_straightW_114" vType="vehicleW_114" speedFactor="0.94" vaporized=""/>
    <tripinfo id="straightE_109" depart="106.00" departLane="edgeE_O_4" departPos="4.77" departSpeed="0.00" departDelay="0.00" arrival="183.00" arrivalLane="edgeW_I_1" arrivalPos="885.70" arrivalSpeed="16.11" duration="77.00" routeLength="1295.23" waitingTime="0.00" waitingCount="0" stopTime="0.00" timeLoss="7.22" rerouteNo="0" devices="tripinfo_straightE_109" vType="vehicleE_109" speedFactor="0.91" vaporized=""/>
    <tripinfo id="straightE_121" depart="121.00" departLane="edgeE_O_3" departPos="5.50" departSpeed="0.00" departDelay="0.00" arrival="184.00" arrivalLane="edgeW_I_2" arrivalPos="885.70" arrivalSpeed="21.71" duration="63.00" routeLength="1294.50" waitingTime="0.00" waitingCount="0" stopTime="0.00" timeLoss="8.80" rerouteNo="0" devices="tripinfo_straightE_121" vType="vehicleE_121" speedFactor="1.17" vaporized=""/>
    <tripinfo id="straightW_126" depart="126.00" departLane="edgeW_O_4" departPos="4.38" departSpeed="0.00" departDelay="0.00" arrival="186.00" arrivalLane="edgeE_I_2" arrivalPos="385.70" arrivalSpeed="19.84" duration="60.00" routeLength="1295.62" waitingTime="0.00" waitingCount="0" stopTime="0.00" timeLoss="6.61" rerouteNo="0" devices="tripinfo_straightW_126" vType="vehicleW_126" speedFactor="1.06" vaporized=""/>
    <tripinfo id="rightE_116" depart="117.00" departLane="edgeE_O_1" departPos="4.22" departSpeed="0.00" departDelay="0.00" arrival="190.00" arrivalLane="edgeN_I_1" arrivalPos="779.30" arrivalSpeed="16.12" duration="73.00" routeLength="1170.94" waitingTime="0.00" waitingCount="0" stopTime="0.00" timeLoss="11.26" rerouteNo="0" devices="tripinfo_rightE_116" vType="vehicleE_116" speedFactor="1.06" vaporized=""/>
    <tripinfo id="straightE_119" depart="119.00" departLane="edgeE_O_3" departPos="4.68" departSpeed="0.00" departDelay="0.00" arrival="193.00" arrivalLane="edgeW_I_1" arrivalPos="885.70" arrivalSpeed="17.34" duration="74.00" routeLength="1295.32" waitingTime="0.00" waitingCount="0" stopTime="0.00" timeLoss="6.70" rerouteNo="0" devices="tripinfo_straightE_119" vType="vehicleE_119" speedFactor="0.95" vaporized=""/>
    <tripinfo id="leftW_97" depart="95.00" departLane="edgeW_O_5" departPos="5.08" departSpeed="0.00" departDelay="0.00" arrival="197.00" arrivalLane="edgeN_I_1" arrivalPos="779.30" arrivalSpeed="15.11" duration="102.00" routeLength="1693.34" waitingTime="3.00" waitingCount="1" stopTime="0.00" timeLoss="16.60" rerouteNo="0" devices="tripinfo_leftW_97" vType="vehicleW_97" speedFactor="1.03" vaporized=""/>
    <tripinfo id="straightE_129" depart="128.00" departLane="edgeE_O_3" departPos="4.64" departSpeed="0.00" departDelay="0.00" arrival="203.00" arrivalLane="edgeW_I_1" arrivalPos="885.70" arrivalSpeed="17.62" duration="75.00" routeLength="1295.36" waitingTime="0.00" waitingCount="0" stopTime="0.00" timeLoss="7.85" rerouteNo="0" devices="tripinfo_straightE_129" vType="vehicleE_129" speedFactor="0.94" vaporized=""/>
    <tripinfo id="leftW_110" depart="110.00" departLane="edgeW_O_5" departPos="4.06" departSpeed="0.00" departDelay="0.00" arrival="210.00" arrivalLane="edgeN_I_2" arrivalPos="779.30" arrivalSpeed="16.22" duration="100.00" routeLength="1694.36" waitingTime="0.00" waitingCount="0" stopTime="0.00" timeLoss="14.80" rerouteNo="0" devices="tripinfo_leftW_110" vType="vehicleW_110" speedFactor="1.03" vaporized=""/>
    <tripinfo id="rightE_133" depart="132.00" departLane="edgeE_O_1" departPos="4.30" departSpeed="0.00" departDelay="0.00" arrival="210.00" arrivalLane="edgeN_I_1" arrivalPos="779.30" arrivalSpeed="14.75" duration="78.00" routeLength="1170.86" waitingTime="0.00" waitingCount="0" stopTime="0.00" timeLoss="10.24" rerouteNo="0" devices="tripinfo_rightE_133" vType="vehicleE_133" speedFactor="0.98" vaporized=""/>
    <tripinfo id="uturnS_13" depart="14.00" departLane="edgeS_O_3" departPos="5.57" departSpeed="0.00" departDelay="0.00" arrival="211.00" arrivalLane="edgeS_I_2" arrivalPos="379.30" arrivalSpeed="15.59" duration="197.00" routeLength="757.71" waitingTime="146.00" waitingCount="1" stopTime="0.00" timeLoss="156.60" rerouteNo="0" devices="tripinfo_uturnS_13" vType="vehicleS_13" speedFactor="1.06" vaporized=""/>
    <tripinfo id="leftN_17" depart="18.00" departLane="edgeN_O_3" departPos="4.03" departSpeed="0.00" departDelay="0.00" arrival="213.00" arrivalLane="edgeE_I_4" arrivalPos="385.70" arrivalSpeed="15.80" duration="195.00" routeLength="1191.94" waitingTime="115.00" waitingCount="1" stopTime="0.00" timeLoss="127.67" rerouteNo="0" devices="tripinfo_leftN_17" vType="vehicleN_17" speedFactor="0.87" vaporized=""/>
    <tripinfo id="leftN_37" depart="31.00" departLane="edgeN_O_3" departPos="4.52" departSpeed="0.00" departDelay="0.00" arrival="218.00" arrivalLane="edgeE_I_5" arrivalPos="385.70" arrivalSpeed="17.92" duration="187.00" routeLength="1191.44" waitingTime="103.00" waitingCount="1" stopTime="0.00" timeLoss="125.50" rerouteNo="0" devices="tripinfo_leftN_37" vType="vehicleN_37" speedFactor="0.96" vaporized=""/>
    <tripinfo id="leftN_28" depart="25.00" departLane="edgeN_O_3" departPos="5.12" departSpeed="0.00" departDelay="0.00" arrival="220.00" arrivalLane="edgeE_I_3" arrivalPos="385.70" arrivalSpeed="13.33" duration="195.00" routeLength="1190.85" waitingTime="104.00" waitingCount="1" stopTime="0.00" timeLoss="117.30" rerouteNo="0" devices="tripinfo_leftN_28" vType="vehicleN_28" speedFactor="0.76" vaporized=""/>
    <tripinfo id="leftN_40" depart="34.00" departLane="edgeN_O_3" departPos="5.20" departSpeed="0.00" departDelay="0.00" arrival="221.00" arrivalLane="edgeE_I_5" arrivalPos="385.70" arrivalSpeed="18.71" duration="187.00" routeLength="1190.77" waitingTime="102.00" waitingCount="1" stopTime="0.00" timeLoss="127.34" rerouteNo="0" devices="tripinfo_leftN_40" vType="vehicleN_40" speedFactor="0.99" vaporized=""/>
    <tripinfo id="uturnS_45" depart="38.00" departLane="edgeS_O_3" departPos="4.92" departSpeed="0.00" departDelay="1.00" arrival="221.00" arrivalLane="edgeS_I_2" arrivalPos="379.30" arrivalSpeed="14.17" duration="183.00" routeLength="758.36" waitingTime="122.00" waitingCount="1" stopTime="0.00" timeLoss="136.79" rerouteNo="0" devices="tripinfo_uturnS_45" vType="vehicleS_45" speedFactor="0.93" vaporized=""/>
    <tripinfo id="uturnS_62" depart="64.00" departLane="edgeS_O_3" departPos="5.33" departSpeed="0.00" departDelay="0.00" arrival="223.00" arrivalLane="edgeS_I_3" arrivalPos="379.30" arrivalSpeed="17.26" duration="159.00" routeLength="757.94" waitingTime="100.00" waitingCount="1" stopTime="0.00" timeLoss="121.48" rerouteNo="0" devices="tripinfo_uturnS_62" vType="vehicleS_62" speedFactor="1.15" vaporized=""/>
    <tripinfo id="uturnS_47" depart="45.00" departLane="edgeS_O_3" departPos="4.40" departSpeed="0.00" departDelay="0.00" arrival="225.00" arrivalLane="edgeS_I_2" arrivalPos="379.30" arrivalSpeed="13.63" duration="180.00" routeLength="758.88" waitingTime="116.00" waitingCount="1" stopTime="0.00" timeLoss="134.05" rerouteNo="0" devices="tripinfo_uturnS_47" vType="vehicleS_47" speedFactor="0.94" vaporized=""/>
    <tripinfo id="leftN_50" depart="49.00" departLane="edgeN_O_3" departPos="4.79" departSpeed="0.00" departDelay="0.00" arrival="226.00" arrivalLane="edgeE_I_4" arrivalPos="385.70" arrivalSpeed="13.06" duration="177.00" routeLength="1191.18" waitingTime="86.00" waitingCount="1" stopTime="0.00" timeLoss="100.33" rerouteNo="0" devices="tripinfo_leftN_50" vType="vehicleN_50" speedFactor="0.77" vaporized=""/>
    <tripinfo id="leftN_59" depart="61.00" departLane="edgeN_O_3" departPos="4.26" departSpeed="0.00" departDelay="0.00" arrival="226.00" arrivalLane="edgeE_I_5" arrivalPos="385.70" arrivalSpeed="15.17" duration="165.00" routeLength="1191.71" waitingTime="80.00" waitingCount="1" stopTime="0.00" timeLoss="97.10" rerouteNo="0" devices="tripinfo_leftN_59" vType="vehicleN_59" speedFactor="0.87" vaporized=""/>
    <tripinfo id="leftN_79" depart="80.00" departLane="edgeN_O_3" departPos="4.52" departSpeed="0.00" departDelay="0.00" arrival="228.00" arrivalLane="edgeE_I_4" arrivalPos="385.70" arrivalSpeed="17.66" duration="148.00" routeLength="1191.45" waitingTime="63.00" waitingCount="1" stopTime="0.00" timeLoss="86.23" rerouteNo="0" devices="tripinfo_leftN_79" vType="vehicleN_79" speedFactor="0.96" vaporized=""/>
    <tripinfo id="leftN_87" depart="89.00" departLane="edgeN_O_3" departPos="4.94" departSpeed="0.00" departDelay="1.00" arrival="230.00" arrivalLane="edgeE_I_5" arrivalPos="385.70" arrivalSpeed="18.26" duration="141.00" routeLength="1191.03" waitingTime="58.00" waitingCount="1" stopTime="0.00" timeLoss="80.00" rerouteNo="0" devices="tripinfo_leftN_87" vType="vehicleN_87" speedFactor="0.96" vaporized=""/>
    <tripinfo id="uturnS_127" depart="127.00" departLane="edgeS_O_3" departPos="5.42" departSpeed="0.00" departDelay="0.00" arrival="235.00" arrivalLane="edgeS_I_2" arrivalPos="379.30" arrivalSpeed="12.94" duration="108.00" routeLength="757.87" waitingTime="36.00" waitingCount="1" stopTime="0.00" timeLoss="59.55" rerouteNo="0" devices="tripinfo_uturnS_127" vType="vehicleS_127" speedFactor="0.89" vaporized=""/>
    <tripinfo id="leftN_120" depart="120.00" departLane="edgeN_O_3" departPos="5.04" departSpeed="0.00" departDelay="0.00" arrival="236.00" arrivalLane="edgeE_I_5" arrivalPos="385.70" arrivalSpeed="20.17" duration="116.00" routeLength="1190.93" waitingTime="34.00" waitingCount="1" stopTime="0.00" timeLoss="60.54" rerouteNo="0" devices="tripinfo_leftN_120" vType="vehicleN_120" speedFactor="1.07" vaporized=""/>
    <tripinfo id="leftN_100" depart="97.00" departLane="edgeN_O_3" departPos="5.49" departSpeed="0.00" departDelay="0.00" arrival="238.00" arrivalLane="edgeE_I_4" arrivalPos="385.70" arrivalSpeed="13.51" duration="141.00" routeLength="1190.48" waitingTime="45.00" waitingCount="1" stopTime="0.00" timeLoss="65.07" rerouteNo="0" devices="tripinfo_leftN_100" vType="vehicleN_100" speedFactor="0.78" vaporized=""/>
    <tripinfo id="leftS_42" depart="35.00" departLane="edgeS_O_3" departPos="5.32" departSpeed="0.00" departDelay="0.00" arrival="241.00" arrivalLane="edgeW_I_2" arrivalPos="885.70" arrivalSpeed="18.68" duration="206.00" routeLength="1290.65" waitingTime="124.00" waitingCount="1" stopTime="0.00" timeLoss="137.66" rerouteNo="0" devices="tripinfo_leftS_42" vType="vehicleS_42" speedFactor="0.99" vaporized=""/>
    <tripinfo id="straightN_2" depart="1.00" departLane="edgeN_O_2" departPos="5.38" departSpeed="0.00" departDelay="0.00" arrival="242.00" arrivalLane="edgeS_I_1" arrivalPos="379.30" arrivalSpeed="18.47" duration="241.00" routeLength="1194.62" waitingTime="173.00" waitingCount="1" stopTime="0.00" timeLoss="187.94" rerouteNo="0" devices="tripinfo_straightN_2" vType="vehicleN_2" speedFactor="1.17" vaporized=""/>
    <tripinfo id="rightS_18" depart="18.00" departLane="edgeS_O_1" departPos="4.39" departSpeed="0.00" departDelay="0.00" arrival="242.00" arrivalLane="edgeE_I_1" arrivalPos="385.70" arrivalSpeed="19.66" duration="224.00" routeLength="770.77" waitingTime="173.00" waitingCount="1" stopTime="0.00" timeLoss="186.44" rerouteNo="0" devices="tripinfo_rightS_18" vType="vehicleS_18" speedFactor="1.06" vaporized=""/>
    <tripinfo id="straightN_6" depart="7.00" departLane="edgeN_O_2" departPos="5.69" departSpeed="0.00" departDelay="0.00" arrival="244.00" arrivalLane="edgeS_I_2" arrivalPos="379.30" arrivalSpeed="15.54" duration="237.00" routeLength="1194.31" waitingTime="164.00" waitingCount="1" stopTime="0.00" timeLoss="177.49" rerouteNo="0" devices="tripinfo_straightN_6" vType="vehicleN_6" speedFactor="1.04" vaporized=""/>
    <tripinfo id="straightN_4" depart="5.00" departLane="edgeN_O_1" departPos="4.49" departSpeed="0.00" departDelay="0.00" arrival="247.00" arrivalLane="edgeS_I_1" arrivalPos="379.30" arrivalSpeed="15.23" duration="242.00" routeLength="1195.51" waitingTime="167.00" waitingCount="1" stopTime="0.00" timeLoss="180.88" rerouteNo="0" devices="tripinfo_straightN_4" vType="vehicleN_4" speedFactor="1.02" vaporized=""/>
    <tripinfo id="straightN_7" depart="9.00" departLane="edgeN_O_2" departPos="4.46" departSpeed="0.00" departDelay="1.00" arrival="248.00" arrivalLane="edgeS_I_2" arrivalPos="379.30" arrivalSpeed="15.17" duration="239.00" routeLength="1195.54" waitingTime="163.00" waitingCount="1" stopTime="0.00" timeLoss="176.58" rerouteNo="0" devices="tripinfo_straightN_7" vType="vehicleN_7" speedFactor="1.00" vaporized=""/>
    <tripinfo id="straightN_12" depart="13.00" departLane="edgeN_O_2" departPos="4.30" departSpeed="0.00" departDelay="0.00" arrival="248.00" arrivalLane="edgeS_I_3" arrivalPos="379.30" arrivalSpeed="16.31" duration="235.00" routeLength="1195.70" waitingTime="161.00" waitingCount="1" stopTime="0.00" timeLoss="175.64" rerouteNo="0" devices="tripinfo_straightN_12" vType="vehicleN_12" speedFactor="1.04" vaporized=""/>
    <tripinfo id="straightN_5" depart="8.00" departLane="edgeN_O_1" departPos="5.14" departSpeed="0.00" departDelay="2.00" arrival="249.00" arrivalLane="edgeS_I_1" arrivalPos="379.30" arrivalSpeed="15.71" duration="241.00" routeLength="1194.86" waitingTime="166.00" waitingCount="1" stopTime="0.00" timeLoss="179.80" rerouteNo="0" devices="tripinfo_straightN_5" vType="vehicleN_5" speedFactor="1.02" vaporized=""/>
    <tripinfo id="rightS_33" depart="28.00" departLane="edgeS_O_1" departPos="5.27" departSpeed="0.00" departDelay="0.00" arrival="251.00" arrivalLane="edgeE_I_2" arrivalPos="385.70" arrivalSpeed="18.58" duration="223.00" routeLength="769.89" waitingTime="161.00" waitingCount="1" stopTime="0.00" timeLoss="183.77" rerouteNo="0" devices="tripinfo_rightS_33" vType="vehicleS_33" speedFactor="1.01" vaporized=""/>
    <tripinfo id="rightS_41" depart="34.00" departLane="edgeS_O_1" departPos="4.78" departSpeed="0.00" departDelay="0.00" arrival="252.00" arrivalLane="edgeE_I_3" arrivalPos="385.70" arrivalSpeed="20.95" duration="218.00" routeLength="770.38" waitingTime="160.00" waitingCount="1" stopTime="0.00" timeLoss="182.15" rerouteNo="0" devices="tripinfo_rightS_41" vType="vehicleS_41" speedFactor="1.11" vaporized=""/>
    <tripinfo id="straightN_23" depart="23.00" departLane="edgeN_O_2" departPos="4.36" departSpeed="0.00" departDelay="0.00" arrival="253.00" arrivalLane="edgeS_I_3" arrivalPos="379.30" arrivalSpeed="15.53" duration="230.00" routeLength="1195.64" waitingTime="149.00" waitingCount="1" stopTime="0.00" timeLoss="169.49" rerouteNo="0" devices="tripinfo_straightN_23" vType="vehicleN_23" speedFactor="1.02" vaporized=""/>
    <tripinfo id="straightN_26" depart="24.00" departLane="edgeN_O_1" departPos="5.57" departSpeed="0.00" departDelay="0.00" arrival="253.00" arrivalLane="edgeS_I_1" arrivalPos="379.30" arrivalSpeed="14.14" duration="229.00" routeLength="1194.43" waitingTime="147.00" waitingCount="1" stopTime="0.00" timeLoss="162.98" rerouteNo="0" devices="tripinfo_straightN_26" vType="vehicleN_26" speedFactor="0.94" vaporized=""/>