<?xml version="1.0" encoding="UTF-8"?>

<!-- generated on 2021-10-16 07:59:26 by Eclipse SUMO GUI Version 1.10.0
<configuration xmlns:xsi="http://www.w3.org/2001/XMLSchema-instance" xsi:noNamespaceSchemaLocation="http://sumo.dlr.de/xsd/sumoConfiguration.xsd">

    <input>
        <net-file value="data/cross.net.xml"/>
        <route-files value="data/cross.rou.xml"/>
    </input>

    <output>
        <tripinfo-output value="data/tripinfo.xml"/>
        <tripinfo-output.write-unfinished value="true"/>
        <statistic-output value="statistics.xml"/>
    </output>

    <time>
        <begin value="0"/>
        <step-length value="1"/>
    </time>

    <processing>
        <threads value="5"/>
        <time-to-teleport value="-1"/>
    </processing>

    <report>
        <verbose value="true"/>
        <no-step-log value="true"/>
    </report>

    <traci_server>
        <remote-port value="62569"/>
    </traci_server>

    <gui_only>
        <tracker-interval value="1"/>
    </gui_only>

</configuration>
-->

<tripinfos xmlns:xsi="http://www.w3.org/2001/XMLSchema-instance" xsi:noNamespaceSchemaLocation="http://sumo.dlr.de/xsd/tripinfo_file.xsd">
    <tripinfo id="straightE_2" depart="2.00" departLane="edgeE_O_1" departPos="5.10" departSpeed="0.00" departDelay="0.00" arrival="96.00" arrivalLane="edgeW_I_1" arrivalPos="482.50" arrivalSpeed="11.09" duration="94.00" routeLength="994.90" waitingTime="0.00" waitingCount="0" stopTime="0.00" timeLoss="22.68" rerouteNo="0" devices="tripinfo_straightE_2" vType="vehicleE_2" speedFactor="1.01" vaporized=""/>
    <tripinfo id="leftW_4" depart="5.00" departLane="edgeW_O_3" departPos="5.10" departSpeed="0.00" departDelay="0.00" arrival="98.00" arrivalLane="edgeN_I_1" arrivalPos="482.50" arrivalSpeed="11.25" duration="93.00" routeLength="995.57" waitingTime="0.00" waitingCount="0" stopTime="0.00" timeLoss="22.88" rerouteNo="0" devices="tripinfo_leftW_4" vType="vehicleW_4" speedFactor="1.03" vaporized=""/>
    <tripinfo id="straightE_12" depart="16.00" departLane="edgeE_O_2" departPos="5.10" departSpeed="0.00" departDelay="0.00" arrival="101.00" arrivalLane="edgeW_I_1" arrivalPos="482.50" arrivalSpeed="11.47" duration="85.00" routeLength="994.90" waitingTime="0.00" waitingCount="0" stopTime="0.00" timeLoss="15.65" rerouteNo="0" devices="tripinfo_straightE_12" vType="vehicleE_12" speedFactor="1.05" vaporized=""/>
    <tripinfo id="rightE_13" depart="17.00" departLane="edgeE_O_1" departPos="5.10" departSpeed="0.00" departDelay="0.00" arrival="101.00" arrivalLane="edgeN_I_1" arrivalPos="482.50" arrivalSpeed="12.15" duration="84.00" routeLength="970.06" waitingTime="0.00" waitingCount="0" stopTime="0.00" timeLoss="20.85" rerouteNo="0" devices="tripinfo_rightE_13" vType="vehicleE_13" speedFactor="1.12" vaporized=""/>
    <tripinfo id="straightW_1" depart="0.00" departLane="edgeW_O_1" departPos="5.10" departSpeed="0.00" departDelay="0.00" arrival="103.00" arrivalLane="edgeE_I_1" arrivalPos="482.50" arrivalSpeed="10.02" duration="103.00" routeLength="994.90" waitingTime="0.00" waitingCount="0" stopTime="0.00" timeLoss="26.01" rerouteNo="0" devices="tripinfo_straightW_1" vType="vehicleW_1" speedFactor="0.94" vaporized=""/>
    <tripinfo id="rightW_11" depart="15.00" departLane="edgeW_O_1" departPos="5.10" departSpeed="0.00" departDelay="0.00" arrival="103.00" arrivalLane="edgeS_I_1" arrivalPos="482.50" arrivalSpeed="11.12" duration="88.00" routeLength="970.06" waitingTime="0.00" waitingCount="0" stopTime="0.00" timeLoss="19.13" rerouteNo="0" devices="tripinfo_rightW_11" vType="vehicleW_11" speedFactor="1.03" vaporized=""/>
    <tripinfo id="straightW_5" depart="6.00" departLane="edgeW_O_1" departPos="5.10" departSpeed="0.00" departDelay="0.00" arrival="108.00" arrivalLane="edgeE_I_1" arrivalPos="482.50" arrivalSpeed="9.12" duration="102.00" routeLength="994.90" waitingTime="0.00" waitingCount="0" stopTime="0.00" timeLoss="15.18" rerouteNo="0" devices="tripinfo_straightW_5" vType="vehicleW_5" speedFactor="0.83" vaporized=""/>
    <tripinfo id="uturnW_9" depart="14.00" departLane="edgeW_O_4" departPos="5.10" departSpeed="0.00" departDelay="0.00" arrival="114.00" arrivalLane="edgeW_I_1" arrivalPos="482.50" arrivalSpeed="9.32" duration="100.00" routeLength="967.18" waitingTime="0.00" waitingCount="0" stopTime="0.00" timeLoss="18.05" rerouteNo="0" devices="tripinfo_uturnW_9" vType="vehicleW_9" speedFactor="0.86" vaporized=""/>
    <tripinfo id="uturnW_20" depart="24.00" departLane="edgeW_O_4" departPos="5.10" departSpeed="0.00" departDelay="0.00" arrival="114.00" arrivalLane="edgeW_I_2" arrivalPos="482.50" arrivalSpeed="10.99" duration="90.00" routeLength="967.18" waitingTime="0.00" waitingCount="0" stopTime="0.00" timeLoss="20.97" rerouteNo="0" devices="tripinfo_uturnW_20" vType="vehicleW_20" speedFactor="1.02" vaporized=""/>
    <tripinfo id="straightE_18" depart="23.00" departLane="edgeE_O_1" departPos="5.10" departSpeed="0.00" departDelay="0.00" arrival="116.00" arrivalLane="edgeW_I_1" arrivalPos="482.50" arrivalSpeed="9.99" duration="93.00" routeLength="994.90" waitingTime="0.00" waitingCount="0" stopTime="0.00" timeLoss="16.40" rerouteNo="0" devices="tripinfo_straightE_18" vType="vehicleE_18" speedFactor="0.94" vaporized=""/>
    <tripinfo id="leftE_30" depart="32.00" departLane="edgeE_O_3" departPos="5.10" departSpeed="0.00" departDelay="0.00" arrival="117.00" arrivalLane="edgeS_I_1" arrivalPos="482.50" arrivalSpeed="12.60" duration="85.00" routeLength="995.57" waitingTime="0.00" waitingCount="0" stopTime="0.00" timeLoss="23.52" rerouteNo="0" devices="tripinfo_leftE_30" vType="vehicleE_30" speedFactor="1.18" vaporized=""/>
    <tripinfo id="straightW_23" depart="26.00" departLane="edgeW_O_3" departPos="5.10" departSpeed="0.00" departDelay="0.00" arrival="121.00" arrivalLane="edgeE_I_1" arrivalPos="482.50" arrivalSpeed="9.60" duration="95.00" routeLength="994.90" waitingTime="0.00" waitingCount="0" stopTime="0.00" timeLoss="14.29" rerouteNo="0" devices="tripinfo_straightW_23" vType="vehicleW_23" speedFactor="0.89" vaporized=""/>
    <tripinfo id="straightW_27" depart="30.00" departLane="edgeW_O_1" departPos="5.10" departSpeed="0.00" departDelay="0.00" arrival="122.00" arrivalLane="edgeE_I_2" arrivalPos="482.50" arrivalSpeed="10.20" duration="92.00" routeLength="994.90" waitingTime="0.00" waitingCount="0" stopTime="0.00" timeLoss="16.16" rerouteNo="0" devices="tripinfo_straightW_27" vType="vehicleW_27" speedFactor="0.95" vaporized=""/>
    <tripinfo id="leftW_33" depart="36.00" departLane="edgeW_O_3" departPos="5.10" departSpeed="0.00" departDelay="0.00" arrival="123.00" arrivalLane="edgeN_I_1" arrivalPos="482.50" arrivalSpeed="12.65" duration="87.00" routeLength="993.47" waitingTime="0.00" waitingCount="0" stopTime="0.00" timeLoss="24.87" rerouteNo="0" devices="tripinfo_leftW_33" vType="vehicleW_33" speedFactor="1.17" vaporized=""/>
    <tripinfo id="uturnW_29" depart="32.00" departLane="edgeW_O_4" departPos="5.10" departSpeed="0.00" departDelay="0.00" arrival="127.00" arrivalLane="edgeW_I_1" arrivalPos="482.50" arrivalSpeed="10.14" duration="95.00" routeLength="967.18" waitingTime="0.00" waitingCount="0" stopTime="0.00" timeLoss="19.54" rerouteNo="0" devices="tripinfo_uturnW_29" vType="vehicleW_29" speedFactor="0.93" vaporized=""/>
    <tripinfo id="uturnE_35" depart="37.00" departLane="edgeE_O_4" departPos="5.10" departSpeed="0.00" departDelay="0.00" arrival="127.00" arrivalLane="edgeE_I_1" arrivalPos="482.50" arrivalSpeed="11.19" duration="90.00" routeLength="967.18" waitingTime="0.00" waitingCount="0" stopTime="0.00" timeLoss="21.13" rerouteNo="0" devices="tripinfo_uturnE_35" vType="vehicleE_35" speedFactor="1.02" vaporized=""/>
    <tripinfo id="uturnW_34" depart="37.00" departLane="edgeW_O_4" departPos="5.10" departSpeed="0.00" departDelay="0.00" arrival="129.00" arrivalLane="edgeW_I_1" arrivalPos="482.50" arrivalSpeed="10.59" duration="92.00" routeLength="967.18" waitingTime="0.00" waitingCount="0" stopTime="0.00" timeLoss="21.11" rerouteNo="0" devices="tripinfo_uturnW_34" vType="vehicleW_34" speedFactor="0.99" vaporized=""/>
    <tripinfo id="uturnE_39" depart="42.00" departLane="edgeE_O_4" departPos="5.10" departSpeed="0.00" departDelay="1.00" arrival="139.00" arrivalLane="edgeE_I_1" arrivalPos="482.50" arrivalSpeed="9.74" duration="97.00" routeLength="967.18" waitingTime="0.00" waitingCount="0" stopTime="0.00" timeLoss="18.10" rerouteNo="0" devices="tripinfo_uturnE_39" vType="vehicleE_39" speedFactor="0.90" vaporized=""/>
    <tripinfo id="straightS_0" depart="0.00" departLane="edgeS_O_3" departPos="5.10" departSpeed="0.00" departDelay="0.00" arrival="143.00" arrivalLane="edgeN_I_1" arrivalPos="482.50" arrivalSpeed="11.52" duration="143.00" routeLength="994.90" waitingTime="47.00" waitingCount="1" stopTime="0.00" timeLoss="75.30" rerouteNo="0" devices="tripinfo_straightS_0" vType="vehicleS_0" speedFactor="1.06" vaporized=""/>
    <tripinfo id="rightN_6" depart="7.00" departLane="edgeN_O_1" departPos="5.10" departSpeed="0.00" departDelay="0.00" arrival="143.00" arrivalLane="edgeW_I_1" arrivalPos="482.50" arrivalSpeed="11.49" duration="136.00" routeLength="970.06" waitingTime="40.00" waitingCount="1" stopTime="0.00" timeLoss="68.03" rerouteNo="0" devices="tripinfo_rightN_6" vType="vehicleN_6" speedFactor="1.05" vaporized=""/>
    <tripinfo id="straightN_14" depart="18.00" departLane="edgeN_O_2" departPos="5.10" departSpeed="0.00" departDelay="0.00" arrival="146.00" arrivalLane="edgeS_I_1" arrivalPos="482.50" arrivalSpeed="10.69" duration="128.00" routeLength="994.90" waitingTime="26.00" waitingCount="1" stopTime="0.00" timeLoss="55.53" rerouteNo="0" devices="tripinfo_straightN_14" vType="vehicleN_14" speedFactor="0.99" vaporized=""/>
    <tripinfo id="straightS_32" depart="39.00" departLane="edgeS_O_3" departPos="5.10" departSpeed="0.00" departDelay="4.00" arrival="148.00" arrivalLane="edgeN_I_1" arrivalPos="482.50" arrivalSpeed="11.04" duration="109.00" routeLength="994.90" waitingTime="1.00" waitingCount="1" stopTime="0.00" timeLoss="37.36" rerouteNo="0" devices="tripinfo_straightS_32" vType="vehicleS_32" speedFactor="1.01" vaporized=""/>
    <tripinfo id="rightS_36" depart="38.00" departLane="edgeS_O_1" departPos="5.10" departSpeed="0.00" departDelay="0.00" arrival="148.00" arrivalLane="edgeE_I_1" arrivalPos="482.50" arrivalSpeed="10.48" duration="110.00" routeLength="970.06" waitingTime="10.00" waitingCount="1" stopTime="0.00" timeLoss="36.69" rerouteNo="0" devices="tripinfo_rightS_36" vType="vehicleS_36" speedFactor="0.97" vaporized=""/>
    <tripinfo id="rightN_42" depart="47.00" departLane="edgeN_O_1" departPos="5.10" departSpeed="0.00" departDelay="3.00" arrival="148.00" arrivalLane="edgeW_I_2" arrivalPos="482.50" arrivalSpeed="11.80" duration="101.00" routeLength="970.06" waitingTime="4.00" waitingCount="1" stopTime="0.00" timeLoss="35.36" rerouteNo="0" devices="tripinfo_rightN_42" vType="vehicleN_42" speedFactor="1.09" vaporized=""/>
    <tripinfo id="rightN_17" depart="23.00" departLane="edgeN_O_1" departPos="5.10" departSpeed="0.00" departDelay="0.00" arrival="149.00" arrivalLane="edgeW_I_1" arrivalPos="482.50" arrivalSpeed="10.08" duration="126.00" routeLength="970.06" waitingTime="24.00" waitingCount="1" stopTime="0.00" timeLoss="50.25" rerouteNo="0" devices="tripinfo_rightN_17" vType="vehicleN_17" speedFactor="0.94" vaporized=""/>
    <tripinfo id="straightS_22" depart="29.00" departLane="edgeS_O_3" departPos="5.10" departSpeed="0.00" departDelay="4.00" arrival="149.00" arrivalLane="edgeN_I_2" arrivalPos="482.50" arrivalSpeed="10.51" duration="120.00" routeLength="994.90" waitingTime="17.00" waitingCount="1" stopTime="0.00" timeLoss="46.27" rerouteNo="0" devices="tripinfo_straightS_22" vType="vehicleS_22" speedFactor="0.98" vaporized=""/>
    <tripinfo id="straightN_21" depart="25.00" departLane="edgeN_O_2" departPos="5.10" departSpeed="0.00" departDelay="0.00" arrival="150.00" arrivalLane="edgeS_I_1" arrivalPos="482.50" arrivalSpeed="10.92" duration="125.00" routeLength="994.90" waitingTime="25.00" waitingCount="1" stopTime="0.00" timeLoss="53.63" rerouteNo="0" devices="tripinfo_straightN_21" vType="vehicleN_21" speedFactor="1.01" vaporized=""/>
    <tripinfo id="rightN_40" depart="42.00" departLane="edgeN_O_1" departPos="5.10" departSpeed="0.00" departDelay="0.00" arrival="150.00" arrivalLane="edgeW_I_2" arrivalPos="482.50" arrivalSpeed="11.26" duration="108.00" routeLength="970.06" waitingTime="7.00" waitingCount="1" stopTime="0.00" timeLoss="38.65" rerouteNo="0" devices="tripinfo_rightN_40" vType="vehicleN_40" speedFactor="1.03" vaporized=""/>
    <tripinfo id="straightS_7" depart="8.00" departLane="edgeS_O_3" departPos="5.10" departSpeed="0.00" departDelay="0.00" arrival="152.00" arrivalLane="edgeN_I_1" arrivalPos="482.50" arrivalSpeed="9.39" duration="144.00" routeLength="994.90" waitingTime="36.00" waitingCount="1" stopTime="0.00" timeLoss="62.54" rerouteNo="0" devices="tripinfo_straightS_7" vType="vehicleS_7" speedFactor="0.89" vaporized=""/>
    <tripinfo id="rightN_46" depart="52.00" departLane="edgeN_O_1" departPos="5.10" departSpeed="0.00" departDelay="1.00" arrival="153.00" arrivalLane="edgeW_I_1" arrivalPos="482.50" arrivalSpeed="10.93" duration="101.00" routeLength="970.06" waitingTime="0.00" waitingCount="0" stopTime="0.00" timeLoss="29.57" rerouteNo="0" devices="tripinfo_rightN_46" vType="vehicleN_46" speedFactor="1.00" vaporized=""/>
    <tripinfo id="straightS_48" depart="58.00" departLane="edgeS_O_1" departPos="5.10" departSpeed="0.00" departDelay="0.00" arrival="154.00" arrivalLane="edgeN_I_1" arrivalPos="482.50" arrivalSpeed="9.33" duration="96.00" routeLength="994.90" waitingTime="0.00" waitingCount="0" stopTime="0.00" timeLoss="14.58" rerouteNo="0" devices="tripinfo_straightS_48" vType="vehicleS_48" speedFactor="0.88" vaporized=""/>
    <tripinfo id="straightN_24" depart="27.00" departLane="edgeN_O_3" departPos="5.10" departSpeed="0.00" departDelay="0.00" arrival="157.00" arrivalLane="edgeS_I_1" arrivalPos="482.50" arrivalSpeed="9.05" duration="130.00" routeLength="994.90" waitingTime="19.00" waitingCount="1" stopTime="0.00" timeLoss="43.48" rerouteNo="0" devices="tripinfo_straightN_24" vType="vehicleN_24" speedFactor="0.83" vaporized=""/>
    <tripinfo id="straightS_50" depart="61.00" departLane="edgeS_O_2" departPos="5.10" departSpeed="0.00" departDelay="0.00" arrival="159.00" arrivalLane="edgeN_I_1" arrivalPos="482.50" arrivalSpeed="9.24" duration="98.00" routeLength="994.90" waitingTime="0.00" waitingCount="0" stopTime="0.00" timeLoss="14.13" rerouteNo="0" devices="tripinfo_straightS_50" vType="vehicleS_50" speedFactor="0.85" vaporized=""/>
    <tripinfo id="straightS_54" depart="71.00" departLane="edgeS_O_2" departPos="5.10" departSpeed="0.00" departDelay="0.00" arrival="159.00" arrivalLane="edgeN_I_2" arrivalPos="482.50" arrivalSpeed="10.77" duration="88.00" routeLength="994.90" waitingTime="0.00" waitingCount="0" stopTime="0.00" timeLoss="16.19" rerouteNo="0" devices="tripinfo_straightS_54" vType="vehicleS_54" speedFactor="1.00" vaporized=""/>
    <tripinfo id="rightN_55" depart="72.00" departLane="edgeN_O_1" departPos="5.10" departSpeed="0.00" departDelay="0.00" arrival="162.00" arrivalLane="edgeW_I_1" arrivalPos="482.50" arrivalSpeed="10.91" duration="90.00" routeLength="970.06" waitingTime="0.00" waitingCount="0" stopTime="0.00" timeLoss="19.29" rerouteNo="0" devices="tripinfo_rightN_55" vType="vehicleN_55" speedFactor="1.00" vaporized=""/>
    <tripinfo id="leftN_10" depart="15.00" departLane="edgeN_O_3" departPos="5.10" departSpeed="0.00" departDelay="0.00" arrival="165.00" arrivalLane="edgeE_I_1" arrivalPos="482.50" arrivalSpeed="11.98" duration="150.00" routeLength="993.47" waitingTime="47.00" waitingCount="2" stopTime="0.00" timeLoss="83.99" rerouteNo="0" devices="tripinfo_leftN_10" vType="vehicleN_10" speedFactor="1.09" vaporized=""/>
    <tripinfo id="uturnN_37" depart="39.00" departLane="edgeN_O_4" departPos="5.10" departSpeed="0.00" departDelay="0.00" arrival="165.00" arrivalLane="edgeN_I_1" arrivalPos="482.50" arrivalSpeed="12.65" duration="126.00" routeLength="967.18" waitingTime="28.00" waitingCount="2" stopTime="0.00" timeLoss="65.84" rerouteNo="0" devices="tripinfo_uturnN_37" vType="vehicleN_37" speedFactor="1.18" vaporized=""/>
    <tripinfo id="straightN_51" depart="66.00" departLane="edgeN_O_2" departPos="5.10" departSpeed="0.00" departDelay="0.00" arrival="165.00" arrivalLane="edgeS_I_1" arrivalPos="482.50" arrivalSpeed="12.67" duration="99.00" routeLength="994.90" waitingTime="3.00" waitingCount="1" stopTime="0.00" timeLoss="37.57" rerouteNo="0" devices="tripinfo_straightN_51" vType="vehicleN_51" speedFactor="1.17" vaporized=""/>
    <tripinfo id="uturnN_44" depart="50.00" departLane="edgeN_O_4" departPos="5.10" departSpeed="0.00" departDelay="0.00" arrival="172.00" arrivalLane="edgeN_I_1" arrivalPos="482.50" arrivalSpeed="11.35" duration="122.00" routeLength="967.18" waitingTime="18.00" waitingCount="2" stopTime="0.00" timeLoss="54.06" rerouteNo="0" devices="tripinfo_uturnN_44" vType="vehicleN_44" speedFactor="1.04" vaporized=""/>
    <tripinfo id="straightN_28" depart="31.00" departLane="edgeN_O_2" departPos="5.10" departSpeed="0.00" departDelay="0.00" arrival="173.00" arrivalLane="edgeS_I_1" arrivalPos="482.50" arrivalSpeed="12.36" duration="142.00" routeLength="994.90" waitingTime="33.00" waitingCount="3" stopTime="0.00" timeLoss="78.17" rerouteNo="0" devices="tripinfo_straightN_28" vType="vehicleN_28" speedFactor="1.13" vaporized=""/>
    <tripinfo id="leftN_3" depart="3.00" departLane="edgeN_O_4" departPos="5.10" departSpeed="0.00" departDelay="0.00" arrival="174.00" arrivalLane="edgeE_I_1" arrivalPos="482.50" arrivalSpeed="11.71" duration="171.00" routeLength="995.57" waitingTime="67.00" waitingCount="2" stopTime="0.00" timeLoss="104.52" rerouteNo="0" devices="tripinfo_leftN_3" vType="vehicleN_3" speedFactor="1.08" vaporized=""/>
    <tripinfo id="leftN_16" depart="22.00" departLane="edgeN_O_4" departPos="5.10" departSpeed="0.00" departDelay="0.00" arrival="176.00" arrivalLane="edgeE_I_1" arrivalPos="482.50" arrivalSpeed="9.28" duration="154.00" routeLength="993.47" waitingTime="39.00" waitingCount="2" stopTime="0.00" timeLoss="72.00" rerouteNo="0" devices="tripinfo_leftN_16" vType="vehicleN_16" speedFactor="0.88" vaporized=""/>
    <tripinfo id="leftS_19" depart="24.00" departLane="edgeS_O_3" departPos="5.10" departSpeed="0.00" departDelay="0.00" arrival="184.00" arrivalLane="edgeW_I_1" arrivalPos="482.50" arrivalSpeed="12.63" duration="160.00" routeLength="993.47" waitingTime="58.00" waitingCount="3" stopTime="0.00" timeLoss="97.20" rerouteNo="0" devices="tripinfo_leftS_19" vType="vehicleS_19" speedFactor="1.16" vaporized=""/>
    <tripinfo id="uturnW_57" depart="73.00" departLane="edgeW_O_4" departPos="5.10" departSpeed="0.00" departDelay="0.00" arrival="184.00" arrivalLane="edgeW_I_2" arrivalPos="482.50" arrivalSpeed="12.38" duration="111.00" routeLength="967.18" waitingTime="18.00" waitingCount="1" stopTime="0.00" timeLoss="49.31" rerouteNo="0" devices="tripinfo_uturnW_57" vType="vehicleW_57" speedFactor="1.14" vaporized=""/>
    <tripinfo id="leftN_61" depart="80.00" departLane="edgeN_O_4" departPos="5.10" departSpeed="0.00" departDelay="0.00" arrival="185.00" arrivalLane="edgeE_I_1" arrivalPos="482.50" arrivalSpeed="12.00" duration="105.00" routeLength="993.47" waitingTime="1.00" waitingCount="1" stopTime="0.00" timeLoss="40.63" rerouteNo="0" devices="tripinfo_leftN_61" vType="vehicleN_61" speedFactor="1.12" vaporized=""/>
    <tripinfo id="straightE_31" depart="37.00" departLane="edgeE_O_3" departPos="5.10" departSpeed="0.00" departDelay="3.00" arrival="187.00" arrivalLane="edgeW_I_2" arrivalPos="482.50" arrivalSpeed="12.64" duration="150.00" routeLength="994.90" waitingTime="53.00" waitingCount="1" stopTime="0.00" timeLoss="87.93" rerouteNo="0" devices="tripinfo_straightE_31" vType="vehicleE_31" speedFactor="1.15" vaporized=""/>
    <tripinfo id="rightW_43" depart="45.00" departLane="edgeW_O_1" departPos="5.10" departSpeed="0.00" departDelay="0.00" arrival="187.00" arrivalLane="edgeS_I_1" arrivalPos="482.50" arrivalSpeed="11.09" duration="142.00" routeLength="970.06" waitingTime="47.00" waitingCount="1" stopTime="0.00" timeLoss="73.59" rerouteNo="0" devices="tripinfo_rightW_43" vType="vehicleW_43" speedFactor="1.04" vaporized=""/>
    <tripinfo id="leftS_8" depart="12.00" departLane="edgeS_O_4" departPos="5.10" departSpeed="0.00" departDelay="0.00" arrival="188.00" arrivalLane="edgeW_I_1" arrivalPos="482.50" arrivalSpeed="10.28" duration="176.00" routeLength="995.57" waitingTime="64.00" waitingCount="2" stopTime="0.00" timeLoss="98.40" rerouteNo="0" devices="tripinfo_leftS_8" vType="vehicleS_8" speedFactor="0.94" vaporized=""/>
    <tripinfo id="leftN_15" depart="21.00" departLane="edgeN_O_3" departPos="5.10" departSpeed="0.00" departDelay="0.00" arrival="190.00" arrivalLane="edgeE_I_1" arrivalPos="482.50" arrivalSpeed="10.04" duration="169.00" routeLength="995.57" waitingTime="51.00" waitingCount="3" stopTime="0.00" timeLoss="91.30" rerouteNo="0" devices="tripinfo_leftN_15" vType="vehicleN_15" speedFactor="0.93" vaporized=""/>
    <tripinfo id="rightW_62" depart="83.00" departLane="edgeW_O_1" departPos="5.10" departSpeed="0.00" departDelay="0.00" arrival="190.00" arrivalLane="edgeS_I_1" arrivalPos="482.50" arrivalSpeed="10.98" duration="107.00" routeLength="970.06" waitingTime="9.00" waitingCount="1" stopTime="0.00" timeLoss="37.05" rerouteNo="0" devices="tripinfo_rightW_62" vType="vehicleW_62" speedFactor="1.02" vaporized=""/>
    <tripinfo id="uturnE_58" depart="76.00" departLane="edgeE_O_4" departPos="5.10" departSpeed="0.00" departDelay="0.00" arrival="194.00" arrivalLane="edgeE_I_1" arrivalPos="482.50" arrivalSpeed="11.11" duration="118.00" routeLength="967.18" waitingTime="17.00" waitingCount="2" stopTime="0.00" timeLoss="48.98" rerouteNo="0" devices="tripinfo_uturnE_58" vType="vehicleE_58" speedFactor="1.02" vaporized=""/>
    <tripinfo id="leftS_26" depart="28.00" departLane="edgeS_O_4" departPos="5.10" departSpeed="0.00" departDelay="0.00" arrival="195.00" arrivalLane="edgeW_I_1" arrivalPos="482.50" arrivalSpeed="9.94" duration="167.00" routeLength="993.47" waitingTime="54.00" waitingCount="3" stopTime="0.00" timeLoss="87.78" rerouteNo="0" devices="tripinfo_leftS_26" vType="vehicleS_26" speedFactor="0.92" vaporized=""/>
    <tripinfo id="rightW_75" depart="104.00" departLane="edgeW_O_1" departPos="5.10" departSpeed="0.00" departDelay="0.00" arrival="195.00" arrivalLane="edgeS_I_1" arrivalPos="482.50" arrivalSpeed="10.67" duration="91.00" routeLength="970.06" waitingTime="0.00" waitingCount="0" stopTime="0.00" timeLoss="18.17" rerouteNo="0" devices="tripinfo_rightW_75" vType="vehicleW_75" speedFactor="0.98" vaporized=""/>
    <tripinfo id="rightE_56" depart="72.00" departLane="edgeE_O_1" departPos="5.10" departSpeed="0.00" departDelay="0.00" arrival="196.00" arrivalLane="edgeN_I_1" arrivalPos="482.50" arrivalSpeed="9.62" duration="124.00" routeLength="970.06" waitingTime="19.00" waitingCount="1" stopTime="0.00" timeLoss="44.97" rerouteNo="0" devices="tripinfo_rightE_56" vType="vehicleE_56" speedFactor="0.90" vaporized=""/>
    <tripinfo id="uturnW_60" depart="78.00" departLane="edgeW_O_4" departPos="5.10" departSpeed="0.00" departDelay="0.00" arrival="196.00" arrivalLane="edgeW_I_3" arrivalPos="482.50" arrivalSpeed="11.78" duration="118.00" routeLength="967.18" waitingTime="17.00" waitingCount="2" stopTime="0.00" timeLoss="52.43" rerouteNo="0" devices="tripinfo_uturnW_60" vType="vehicleW_60" speedFactor="1.08" vaporized=""/>
    <tripinfo id="straightE_74" depart="103.00" departLane="edgeE_O_3" departPos="5.10" departSpeed="0.00" departDelay="0.00" arrival="196.00" arrivalLane="edgeW_I_2" arrivalPos="482.50" arrivalSpeed="10.47" duration="93.00" routeLength="994.90" waitingTime="0.00" waitingCount="0" stopTime="0.00" timeLoss="17.16" rerouteNo="0" devices="tripinfo_straightE_74" vType="vehicleE_74" speedFactor="0.96" vaporized=""/>
    <tripinfo id="leftS_45" depart="50.00" departLane="edgeS_O_4" departPos="5.10" departSpeed="0.00" departDelay="0.00" arrival="197.00" arrivalLane="edgeW_I_1" arrivalPos="482.50" arrivalSpeed="11.68" duration="147.00" routeLength="995.57" waitingTime="34.00" waitingCount="2" stopTime="0.00" timeLoss="80.42" rerouteNo="0" devices="tripinfo_leftS_45" vType="vehicleS_45" speedFactor="1.09" vaporized=""/>
    <tripinfo id="rightW_66" depart="88.00" departLane="edgeW_O_1" departPos="5.10" departSpeed="0.00" departDelay="2.00" arrival="197.00" arrivalLane="edgeS_I_1" arrivalPos="482.50" arrivalSpeed="9.94" duration="109.00" routeLength="970.06" waitingTime="5.00" waitingCount="1" stopTime="0.00" timeLoss="30.33" rerouteNo="0" devices="tripinfo_rightW_66" vType="vehicleW_66" speedFactor="0.91" vaporized=""/>
    <tripinfo id="rightW_77" depart="110.00" departLane="edgeW_O_1" departPos="5.10" departSpeed="0.00" departDelay="0.00" arrival="202.00" arrivalLane="edgeS_I_1" arrivalPos="482.50" arrivalSpeed="10.64" duration="92.00" routeLength="970.06" waitingTime="0.00" waitingCount="0" stopTime="0.00" timeLoss="19.67" rerouteNo="0" devices="tripinfo_rightW_77" vType="vehicleW_77" speedFactor="0.98" vaporized=""/>
    <tripinfo id="leftS_25" depart="34.00" departLane="edgeS_O_3" departPos="5.10" departSpeed="0.00" departDelay="7.00" arrival="204.00" arrivalLane="edgeW_I_1" arrivalPos="482.50" arrivalSpeed="9.22" duration="170.00" routeLength="995.57" waitingTime="50.00" waitingCount="3" stopTime="0.00" timeLoss="87.13" rerouteNo="0" devices="tripinfo_leftS_25" vType="vehicleS_25" speedFactor="0.87" vaporized=""/>
    <tripinfo id="uturnE_80" depart="114.00" departLane="edgeE_O_4" departPos="5.10" departSpeed="0.00" departDelay="0.00" arrival="204.00" arrivalLane="edgeE_I_1" arrivalPos="482.50" arrivalSpeed="11.23" duration="90.00" routeLength="967.18" waitingTime="0.00" waitingCount="0" stopTime="0.00" timeLoss="21.25" rerouteNo="0" devices="tripinfo_uturnE_80" vType="vehicleE_80" speedFactor="1.03" vaporized=""/>
    <tripinfo id="straightE_81" depart="115.00" departLane="edgeE_O_3" departPos="5.10" departSpeed="0.00" departDelay="0.00" arrival="204.00" arrivalLane="edgeW_I_2" arrivalPos="482.50" arrivalSpeed="10.86" duration="89.00" routeLength="994.90" waitingTime="0.00" waitingCount="0" stopTime="0.00" timeLoss="16.34" rerouteNo="0" devices="tripinfo_straightE_81" vType="vehicleE_81" speedFactor="1.00" vaporized=""/>
    <tripinfo id="uturnW_79" depart="114.00" departLane="edgeW_O_4" departPos="5.10" departSpeed="0.00" departDelay="0.00" arrival="210.00" arrivalLane="edgeW_I_1" arrivalPos="482.50" arrivalSpeed="11.65" duration="96.00" routeLength="967.18" waitingTime="2.00" waitingCount="1" stopTime="0.00" timeLoss="30.83" rerouteNo="0" devices="tripinfo_uturnW_79" vType="vehicleW_79" speedFactor="1.09" vaporized=""/>
    <tripinfo id="uturnW_84" depart="119.00" departLane="edgeW_O_4" departPos="5.10" departSpeed="0.00" departDelay="2.00" arrival="211.00" arrivalLane="edgeW_I_2" arrivalPos="482.50" arrivalSpeed="12.61" duration="92.00" routeLength="967.18" waitingTime="0.00" waitingCount="0" stopTime="0.00" timeLoss="30.16" rerouteNo="0" devices="tripinfo_uturnW_84" vType="vehicleW_84" speedFactor="1.15" vaporized=""/>
    <tripinfo id="uturnE_86" depart="120.00" departLane="edgeE_O_4" departPos="5.10" departSpeed="0.00" departDelay="0.00" arrival="213.00" arrivalLane="edgeE_I_2" arrivalPos="482.50" arrivalSpeed="10.96" duration="93.00" routeLength="967.18" waitingTime="0.00" waitingCount="0" stopTime="0.00" timeLoss="21.40" rerouteNo="0" devices="tripinfo_uturnE_86" vType="vehicleE_86" speedFactor="1.00" vaporized=""/>
    <tripinfo id="straightW_49" depart="58.00" departLane="edgeW_O_2" departPos="5.10" departSpeed="0.00" departDelay="0.00" arrival="214.00" arrivalLane="edgeE_I_1" arrivalPos="482.50" arrivalSpeed="9.18" duration="156.00" routeLength="994.90" waitingTime="45.00" waitingCount="2" stopTime="0.00" timeLoss="71.06" rerouteNo="0" devices="tripinfo_straightW_49" vType="vehicleW_49" speedFactor="0.85" vaporized=""/>
    <tripinfo id="leftE_82" depart="120.00" departLane="edgeE_O_3" departPos="5.10" departSpeed="0.00" departDelay="4.00" arrival="214.00" arrivalLane="edgeS_I_1" arrivalPos="482.50" arrivalSpeed="11.02" duration="94.00" routeLength="993.47" waitingTime="0.00" waitingCount="0" stopTime="0.00" timeLoss="22.74" rerouteNo="0" devices="tripinfo_leftE_82" vType="vehicleE_82" speedFactor="1.02" vaporized=""/>
    <tripinfo id="leftW_64" depart="85.00" departLane="edgeW_O_3" departPos="5.10" departSpeed="0.00" departDelay="0.00" arrival="216.00" arrivalLane="edgeN_I_1" arrivalPos="482.50" arrivalSpeed="10.15" duration="131.00" routeLength="993.47" waitingTime="12.00" waitingCount="3" stopTime="0.00" timeLoss="54.05" rerouteNo="0" devices="tripinfo_leftW_64" vType="vehicleW_64" speedFactor="0.94" vaporized=""/>
    <tripinfo id="leftE_67" depart="90.00" departLane="edgeE_O_4" departPos="5.10" departSpeed="0.00" departDelay="0.00" arrival="216.00" arrivalLane="edgeS_I_1" arrivalPos="482.50" arrivalSpeed="9.89" duration="126.00" routeLength="993.47" waitingTime="9.00" waitingCount="3" stopTime="0.00" timeLoss="47.01" rerouteNo="0" devices="tripinfo_leftE_67" vType="vehicleE_67" speedFactor="0.91" vaporized=""/>
    <tripinfo id="leftW_85" depart="118.00" departLane="edgeW_O_3" departPos="5.10" departSpeed="0.00" departDelay="0.00" arrival="221.00" arrivalLane="edgeN_I_1" arrivalPos="482.50" arrivalSpeed="10.51" duration="103.00" routeLength="995.57" waitingTime="1.00" waitingCount="1" stopTime="0.00" timeLoss="28.84" rerouteNo="0" devices="tripinfo_leftW_85" vType="vehicleW_85" speedFactor="0.98" vaporized=""/>