<?xml version="1.0" encoding="UTF-8"?>

<!-- generated on 2021-10-23 05:40:06 by Eclipse SUMO sumo Version 1.10.0
<configuration xmlns:xsi="http://www.w3.org/2001/XMLSchema-instance" xsi:noNamespaceSchemaLocation="http://sumo.dlr.de/xsd/sumoConfiguration.xsd">

    <input>
        <net-file value="data10/cross.net.xml"/>
        <route-files value="data10/cross.rou.xml"/>
        <additional-files value="data10/cross.tls.xml"/>
    </input>

    <output>
        <tripinfo-output value="data10/tripinfo.xml"/>
        <tripinfo-output.write-unfinished value="true"/>
    </output>

    <time>
        <begin value="0"/>
        <step-length value="1"/>
    </time>

    <processing>
        <threads value="5"/>
        <time-to-teleport value="-1"/>
    </processing>

    <report>
        <verbose value="true"/>
        <no-warnings value="true"/>
        <no-step-log value="true"/>
    </report>

    <traci_server>
        <remote-port value="49272"/>
    </traci_server>

    <gui_only>
        <gui-settings-file value="data10/viewsettings.xml"/>
        <tracker-interval value="1"/>
    </gui_only>

</configuration>
-->

<tripinfos xmlns:xsi="http://www.w3.org/2001/XMLSchema-instance" xsi:noNamespaceSchemaLocation="http://sumo.dlr.de/xsd/tripinfo_file.xsd">
    <tripinfo id="rightE_8" depart="3.00" departLane="edgeE_O_1" departPos="5.02" departSpeed="0.00" departDelay="0.00" arrival="81.00" arrivalLane="edgeN_I_1" arrivalPos="479.30" arrivalSpeed="27.59" duration="78.00" routeLength="1460.54" waitingTime="0.00" waitingCount="0" stopTime="0.00" timeLoss="10.61" rerouteNo="0" devices="tripinfo_rightE_8" vType="vehicleE_8" speedFactor="1.10" vaporized=""/>
    <tripinfo id="leftW_38" depart="20.00" departLane="edgeW_O_4" departPos="5.34" departSpeed="0.00" departDelay="1.00" arrival="98.00" arrivalLane="edgeN_I_5" arrivalPos="479.30" arrivalSpeed="25.77" duration="78.00" routeLength="1191.31" waitingTime="9.00" waitingCount="1" stopTime="0.00" timeLoss="21.35" rerouteNo="0" devices="tripinfo_leftW_38" vType="vehicleW_38" speedFactor="1.05" vaporized=""/>
    <tripinfo id="rightW_16" depart="7.00" departLane="edgeW_O_1" departPos="5.41" departSpeed="0.00" departDelay="0.00" arrival="103.00" arrivalLane="edgeS_I_1" arrivalPos="979.30" arrivalSpeed="25.75" duration="96.00" routeLength="1660.15" waitingTime="3.00" waitingCount="2" stopTime="0.00" timeLoss="19.03" rerouteNo="0" devices="tripinfo_rightW_16" vType="vehicleW_16" speedFactor="1.00" vaporized=""/>
    <tripinfo id="rightW_47" depart="24.00" departLane="edgeW_O_2" departPos="5.28" departSpeed="0.00" departDelay="0.00" arrival="109.00" arrivalLane="edgeS_I_1" arrivalPos="979.30" arrivalSpeed="26.18" duration="85.00" routeLength="1662.96" waitingTime="0.00" waitingCount="0" stopTime="0.00" timeLoss="10.61" rerouteNo="0" devices="tripinfo_rightW_47" vType="vehicleW_47" speedFactor="1.05" vaporized=""/>
    <tripinfo id="leftW_33" depart="17.00" departLane="edgeW_O_4" departPos="4.93" departSpeed="0.00" departDelay="0.00" arrival="115.00" arrivalLane="edgeN_I_5" arrivalPos="479.30" arrivalSpeed="24.03" duration="98.00" routeLength="1191.72" waitingTime="20.00" waitingCount="2" stopTime="0.00" timeLoss="34.40" rerouteNo="0" devices="tripinfo_leftW_33" vType="vehicleW_33" speedFactor="0.94" vaporized=""/>
    <tripinfo id="leftW_44" depart="22.00" departLane="edgeW_O_4" departPos="4.44" departSpeed="0.00" departDelay="0.00" arrival="122.00" arrivalLane="edgeN_I_5" arrivalPos="479.30" arrivalSpeed="24.70" duration="100.00" routeLength="1192.21" waitingTime="21.00" waitingCount="3" stopTime="0.00" timeLoss="40.28" rerouteNo="0" devices="tripinfo_leftW_44" vType="vehicleW_44" speedFactor="1.01" vaporized=""/>
    <tripinfo id="leftW_60" depart="35.00" departLane="edgeW_O_4" departPos="5.09" departSpeed="0.00" departDelay="2.00" arrival="123.00" arrivalLane="edgeN_I_5" arrivalPos="479.30" arrivalSpeed="25.16" duration="88.00" routeLength="1191.56" waitingTime="12.00" waitingCount="2" stopTime="0.00" timeLoss="31.04" rerouteNo="0" devices="tripinfo_leftW_60" vType="vehicleW_60" speedFactor="1.04" vaporized=""/>
    <tripinfo id="leftW_86" depart="47.00" departLane="edgeW_O_5" departPos="4.42" departSpeed="0.00" departDelay="0.00" arrival="126.00" arrivalLane="edgeN_I_5" arrivalPos="479.30" arrivalSpeed="27.95" duration="79.00" routeLength="1192.24" waitingTime="4.00" waitingCount="2" stopTime="0.00" timeLoss="26.27" rerouteNo="0" devices="tripinfo_leftW_86" vType="vehicleW_86" speedFactor="1.13" vaporized=""/>
    <tripinfo id="rightW_82" depart="46.00" departLane="edgeW_O_2" departPos="4.39" departSpeed="0.00" departDelay="0.00" arrival="130.00" arrivalLane="edgeS_I_1" arrivalPos="979.30" arrivalSpeed="28.37" duration="84.00" routeLength="1661.17" waitingTime="0.00" waitingCount="0" stopTime="0.00" timeLoss="13.71" rerouteNo="0" devices="tripinfo_rightW_82" vType="vehicleW_82" speedFactor="1.10" vaporized=""/>
    <tripinfo id="leftW_74" depart="43.00" departLane="edgeW_O_4" departPos="4.13" departSpeed="0.00" departDelay="1.00" arrival="133.00" arrivalLane="edgeN_I_5" arrivalPos="479.30" arrivalSpeed="20.99" duration="90.00" routeLength="1192.52" waitingTime="1.00" waitingCount="1" stopTime="0.00" timeLoss="17.43" rerouteNo="0" devices="tripinfo_leftW_74" vType="vehicleW_74" speedFactor="0.82" vaporized=""/>
    <tripinfo id="leftW_97" depart="52.00" departLane="edgeW_O_5" departPos="4.86" departSpeed="0.00" departDelay="0.00" arrival="133.00" arrivalLane="edgeN_I_6" arrivalPos="479.30" arrivalSpeed="22.23" duration="81.00" routeLength="1191.79" waitingTime="0.00" waitingCount="0" stopTime="0.00" timeLoss="14.08" rerouteNo="0" devices="tripinfo_leftW_97" vType="vehicleW_97" speedFactor="0.89" vaporized=""/>
    <tripinfo id="straightE_12" depart="5.00" departLane="edgeE_O_2" departPos="5.45" departSpeed="0.00" departDelay="0.00" arrival="135.00" arrivalLane="edgeW_I_1" arrivalPos="676.10" arrivalSpeed="10.34" duration="130.00" routeLength="1694.55" waitingTime="0.00" waitingCount="0" stopTime="0.00" timeLoss="10.37" rerouteNo="0" devices="tripinfo_straightE_12" vType="vehicleE_12" speedFactor="0.99" vaporized=""/>
    <tripinfo id="leftW_4" depart="2.00" departLane="edgeW_O_5" departPos="3.99" departSpeed="0.00" departDelay="0.00" arrival="140.00" arrivalLane="edgeN_I_6" arrivalPos="479.30" arrivalSpeed="26.16" duration="138.00" routeLength="1195.14" waitingTime="58.00" waitingCount="2" stopTime="0.00" timeLoss="78.81" rerouteNo="0" devices="tripinfo_leftW_4" vType="vehicleW_4" speedFactor="1.02" vaporized=""/>
    <tripinfo id="straightE_22" depart="11.00" departLane="edgeE_O_2" departPos="4.92" departSpeed="0.00" departDelay="0.00" arrival="140.00" arrivalLane="edgeW_I_1" arrivalPos="676.10" arrivalSpeed="10.82" duration="129.00" routeLength="1695.08" waitingTime="0.00" waitingCount="0" stopTime="0.00" timeLoss="9.76" rerouteNo="0" devices="tripinfo_straightE_22" vType="vehicleE_22" speedFactor="0.99" vaporized=""/>
    <tripinfo id="leftW_99" depart="55.00" departLane="edgeW_O_5" departPos="4.44" departSpeed="0.00" departDelay="0.00" arrival="142.00" arrivalLane="edgeN_I_5" arrivalPos="479.30" arrivalSpeed="25.02" duration="87.00" routeLength="1192.21" waitingTime="5.00" waitingCount="2" stopTime="0.00" timeLoss="29.01" rerouteNo="0" devices="tripinfo_leftW_99" vType="vehicleW_99" speedFactor="1.03" vaporized=""/>
    <tripinfo id="straightE_48" depart="24.00" departLane="edgeE_O_2" departPos="4.57" departSpeed="0.00" departDelay="0.00" arrival="145.00" arrivalLane="edgeW_I_1" arrivalPos="676.10" arrivalSpeed="11.27" duration="121.00" routeLength="1695.43" waitingTime="0.00" waitingCount="0" stopTime="0.00" timeLoss="13.16" rerouteNo="0" devices="tripinfo_straightE_48" vType="vehicleE_48" speedFactor="1.10" vaporized=""/>
    <tripinfo id="straightW_7" depart="3.00" departLane="edgeW_O_4" departPos="5.34" departSpeed="0.00" departDelay="0.00" arrival="148.00" arrivalLane="edgeE_I_1" arrivalPos="976.10" arrivalSpeed="12.75" duration="145.00" routeLength="1694.66" waitingTime="8.00" waitingCount="1" stopTime="0.00" timeLoss="31.26" rerouteNo="0" devices="tripinfo_straightW_7" vType="vehicleW_7" speedFactor="1.13" vaporized=""/>
    <tripinfo id="uturnN_39" depart="20.00" departLane="edgeN_O_6" departPos="4.09" departSpeed="0.00" departDelay="0.00" arrival="150.00" arrivalLane="edgeN_I_6" arrivalPos="479.30" arrivalSpeed="25.49" duration="130.00" routeLength="959.19" waitingTime="72.00" waitingCount="1" stopTime="0.00" timeLoss="85.30" rerouteNo="0" devices="tripinfo_uturnN_39" vType="vehicleN_39" speedFactor="1.00" vaporized=""/>
    <tripinfo id="straightW_27" depart="14.00" departLane="edgeW_O_3" departPos="4.39" departSpeed="0.00" departDelay="0.00" arrival="153.00" arrivalLane="edgeE_I_2" arrivalPos="976.10" arrivalSpeed="11.52" duration="139.00" routeLength="1695.61" waitingTime="5.00" waitingCount="1" stopTime="0.00" timeLoss="21.01" rerouteNo="0" devices="tripinfo_straightW_27" vType="vehicleW_27" speedFactor="1.08" vaporized=""/>
    <tripinfo id="straightW_19" depart="9.00" departLane="edgeW_O_4" departPos="4.05" departSpeed="0.00" departDelay="0.00" arrival="154.00" arrivalLane="edgeE_I_1" arrivalPos="976.10" arrivalSpeed="11.61" duration="145.00" routeLength="1695.95" waitingTime="5.00" waitingCount="1" stopTime="0.00" timeLoss="25.44" rerouteNo="0" devices="tripinfo_straightW_19" vType="vehicleW_19" speedFactor="1.07" vaporized=""/>
    <tripinfo id="straightE_53" depart="26.00" departLane="edgeE_O_4" departPos="4.24" departSpeed="0.00" departDelay="0.00" arrival="154.00" arrivalLane="edgeW_I_1" arrivalPos="676.10" arrivalSpeed="12.04" duration="128.00" routeLength="1695.76" waitingTime="1.00" waitingCount="1" stopTime="0.00" timeLoss="24.09" rerouteNo="0" devices="tripinfo_straightE_53" vType="vehicleE_53" speedFactor="1.14" vaporized=""/>
    <tripinfo id="leftE_10" depart="4.00" departLane="edgeE_O_5" departPos="4.45" departSpeed="0.00" departDelay="0.00" arrival="157.00" arrivalLane="edgeS_I_6" arrivalPos="979.30" arrivalSpeed="32.09" duration="153.00" routeLength="1994.68" waitingTime="54.00" waitingCount="2" stopTime="0.00" timeLoss="76.49" rerouteNo="0" devices="tripinfo_leftE_10" vType="vehicleE_10" speedFactor="1.25" vaporized=""/>
    <tripinfo id="straightW_52" depart="26.00" departLane="edgeW_O_4" departPos="5.16" departSpeed="0.00" departDelay="0.00" arrival="157.00" arrivalLane="edgeE_I_1" arrivalPos="976.10" arrivalSpeed="11.48" duration="131.00" routeLength="1694.84" waitingTime="0.00" waitingCount="0" stopTime="0.00" timeLoss="10.93" rerouteNo="0" devices="tripinfo_straightW_52" vType="vehicleW_52" speedFactor="1.06" vaporized=""/>
    <tripinfo id="straightE_30" depart="15.00" departLane="edgeE_O_4" departPos="5.50" departSpeed="0.00" departDelay="0.00" arrival="158.00" arrivalLane="edgeW_I_1" arrivalPos="676.10" arrivalSpeed="9.65" duration="143.00" routeLength="1694.50" waitingTime="0.00" waitingCount="0" stopTime="0.00" timeLoss="11.55" rerouteNo="0" devices="tripinfo_straightE_30" vType="vehicleE_30" speedFactor="0.90" vaporized=""/>
    <tripinfo id="leftE_50" depart="25.00" departLane="edgeE_O_5" departPos="5.23" departSpeed="0.00" departDelay="0.00" arrival="158.00" arrivalLane="edgeS_I_4" arrivalPos="979.30" arrivalSpeed="25.06" duration="133.00" routeLength="1991.42" waitingTime="25.00" waitingCount="1" stopTime="0.00" timeLoss="38.08" rerouteNo="0" devices="tripinfo_leftE_50" vType="vehicleE_50" speedFactor="1.01" vaporized=""/>
    <tripinfo id="straightW_1" depart="0.00" departLane="edgeW_O_2" departPos="3.96" departSpeed="0.00" departDelay="0.00" arrival="159.00" arrivalLane="edgeE_I_1" arrivalPos="976.10" arrivalSpeed="10.44" duration="159.00" routeLength="1696.04" waitingTime="13.00" waitingCount="1" stopTime="0.00" timeLoss="28.38" rerouteNo="0" devices="tripinfo_straightW_1" vType="vehicleW_1" speedFactor="0.98" vaporized=""/>
    <tripinfo id="leftE_43" depart="21.00" departLane="edgeE_O_4" departPos="4.04" departSpeed="0.00" departDelay="0.00" arrival="160.00" arrivalLane="edgeS_I_4" arrivalPos="979.30" arrivalSpeed="24.58" duration="139.00" routeLength="1992.61" waitingTime="22.00" waitingCount="1" stopTime="0.00" timeLoss="42.99" rerouteNo="0" devices="tripinfo_leftE_43" vType="vehicleE_43" speedFactor="1.00" vaporized=""/>
    <tripinfo id="leftE_67" depart="38.00" departLane="edgeE_O_5" departPos="4.51" departSpeed="0.00" departDelay="0.00" arrival="160.00" arrivalLane="edgeS_I_5" arrivalPos="979.30" arrivalSpeed="30.00" duration="122.00" routeLength="1992.14" waitingTime="23.00" waitingCount="2" stopTime="0.00" timeLoss="43.49" rerouteNo="0" devices="tripinfo_leftE_67" vType="vehicleE_67" speedFactor="1.22" vaporized=""/>
    <tripinfo id="straightW_2" depart="3.00" departLane="edgeW_O_2" departPos="4.39" departSpeed="0.00" departDelay="2.00" arrival="162.00" arrivalLane="edgeE_I_1" arrivalPos="976.10" arrivalSpeed="9.27" duration="159.00" routeLength="1695.61" waitingTime="9.00" waitingCount="1" stopTime="0.00" timeLoss="26.24" rerouteNo="0" devices="tripinfo_straightW_2" vType="vehicleW_2" speedFactor="0.96" vaporized=""/>
    <tripinfo id="straightW_54" depart="29.00" departLane="edgeW_O_4" departPos="4.48" departSpeed="0.00" departDelay="1.00" arrival="162.00" arrivalLane="edgeE_I_2" arrivalPos="976.10" arrivalSpeed="10.70" duration="133.00" routeLength="1695.52" waitingTime="0.00" waitingCount="0" stopTime="0.00" timeLoss="10.13" rerouteNo="0" devices="tripinfo_straightW_54" vType="vehicleW_54" speedFactor="1.04" vaporized=""/>
    <tripinfo id="straightW_63" depart="38.00" departLane="edgeW_O_4" departPos="4.74" departSpeed="0.00" departDelay="1.00" arrival="163.00" arrivalLane="edgeE_I_3" arrivalPos="976.10" arrivalSpeed="12.59" duration="125.00" routeLength="1695.26" waitingTime="0.00" waitingCount="0" stopTime="0.00" timeLoss="17.38" rerouteNo="0" devices="tripinfo_straightW_63" vType="vehicleW_63" speedFactor="1.19" vaporized=""/>
    <tripinfo id="straightW_14" depart="6.00" departLane="edgeW_O_2" departPos="4.71" departSpeed="0.00" departDelay="0.00" arrival="166.00" arrivalLane="edgeE_I_1" arrivalPos="976.10" arrivalSpeed="9.90" duration="160.00" routeLength="1695.29" waitingTime="2.00" waitingCount="1" stopTime="0.00" timeLoss="22.66" rerouteNo="0" devices="tripinfo_straightW_14" vType="vehicleW_14" speedFactor="0.93" vaporized=""/>
    <tripinfo id="straightW_25" depart="13.00" departLane="edgeW_O_4" departPos="4.64" departSpeed="0.00" departDelay="0.00" arrival="166.00" arrivalLane="edgeE_I_2" arrivalPos="976.10" arrivalSpeed="10.04" duration="153.00" routeLength="1695.36" waitingTime="0.00" waitingCount="0" stopTime="0.00" timeLoss="20.53" rerouteNo="0" devices="tripinfo_straightW_25" vType="vehicleW_25" speedFactor="0.97" vaporized=""/>
    <tripinfo id="straightW_29" depart="17.00" departLane="edgeW_O_3" departPos="4.28" departSpeed="0.00" departDelay="2.00" arrival="167.00" arrivalLane="edgeE_I_3" arrivalPos="976.10" arrivalSpeed="10.12" duration="150.00" routeLength="1695.72" waitingTime="0.00" waitingCount="0" stopTime="0.00" timeLoss="22.64" rerouteNo="0" devices="tripinfo_straightW_29" vType="vehicleW_29" speedFactor="1.00" vaporized=""/>
    <tripinfo id="straightS_0" depart="0.00" departLane="edgeS_O_5" departPos="4.29" departSpeed="0.00" departDelay="0.00" arrival="168.00" arrivalLane="edgeN_I_1" arrivalPos="479.30" arrivalSpeed="27.42" duration="168.00" routeLength="1495.71" waitingTime="90.00" waitingCount="1" stopTime="0.00" timeLoss="104.08" rerouteNo="0" devices="tripinfo_straightS_0" vType="vehicleS_0" speedFactor="1.12" vaporized=""/>
    <tripinfo id="straightW_21" depart="11.00" departLane="edgeW_O_2" departPos="4.55" departSpeed="0.00" departDelay="0.00" arrival="168.00" arrivalLane="edgeE_I_2" arrivalPos="976.10" arrivalSpeed="9.79" duration="157.00" routeLength="1695.45" waitingTime="1.00" waitingCount="1" stopTime="0.00" timeLoss="21.74" rerouteNo="0" devices="tripinfo_straightW_21" vType="vehicleW_21" speedFactor="0.94" vaporized=""/>
    <tripinfo id="straightW_49" depart="25.00" departLane="edgeW_O_3" departPos="4.30" departSpeed="0.00" departDelay="0.00" arrival="168.00" arrivalLane="edgeE_I_1" arrivalPos="976.10" arrivalSpeed="11.02" duration="143.00" routeLength="1695.70" waitingTime="0.00" waitingCount="0" stopTime="0.00" timeLoss="16.49" rerouteNo="0" devices="tripinfo_straightW_49" vType="vehicleW_49" speedFactor="1.01" vaporized=""/>
    <tripinfo id="uturnN_202" depart="114.00" departLane="edgeN_O_6" departPos="4.84" departSpeed="0.00" departDelay="0.00" arrival="168.00" arrivalLane="edgeN_I_6" arrivalPos="479.30" arrivalSpeed="26.43" duration="54.00" routeLength="958.44" waitingTime="0.00" waitingCount="0" stopTime="0.00" timeLoss="11.53" rerouteNo="0" devices="tripinfo_uturnN_202" vType="vehicleN_202" speedFactor="1.05" vaporized=""/>
    <tripinfo id="straightW_58" depart="31.00" departLane="edgeW_O_2" departPos="4.97" departSpeed="0.00" departDelay="0.00" arrival="169.00" arrivalLane="edgeE_I_3" arrivalPos="976.10" arrivalSpeed="10.36" duration="138.00" routeLength="1695.03" waitingTime="0.00" waitingCount="0" stopTime="0.00" timeLoss="10.26" rerouteNo="0" devices="tripinfo_straightW_58" vType="vehicleW_58" speedFactor="1.00" vaporized=""/>
    <tripinfo id="uturnN_148" depart="85.00" departLane="edgeN_O_6" departPos="3.99" departSpeed="0.00" departDelay="0.00" arrival="169.00" arrivalLane="edgeN_I_5" arrivalPos="479.30" arrivalSpeed="19.69" duration="84.00" routeLength="959.29" waitingTime="11.00" waitingCount="1" stopTime="0.00" timeLoss="29.24" rerouteNo="0" devices="tripinfo_uturnN_148" vType="vehicleN_148" speedFactor="0.82" vaporized=""/>
    <tripinfo id="leftE_5" depart="2.00" departLane="edgeE_O_4" departPos="4.99" departSpeed="0.00" departDelay="0.00" arrival="170.00" arrivalLane="edgeS_I_3" arrivalPos="979.30" arrivalSpeed="23.83" duration="168.00" routeLength="1994.14" waitingTime="50.00" waitingCount="2" stopTime="0.00" timeLoss="68.17" rerouteNo="0" devices="tripinfo_leftE_5" vType="vehicleE_5" speedFactor="0.97" vaporized=""/>
    <tripinfo id="straightS_6" depart="3.00" departLane="edgeS_O_1" departPos="4.41" departSpeed="0.00" departDelay="0.00" arrival="170.00" arrivalLane="edgeN_I_1" arrivalPos="479.30" arrivalSpeed="28.54" duration="167.00" routeLength="1495.59" waitingTime="85.00" waitingCount="1" stopTime="0.00" timeLoss="104.01" rerouteNo="0" devices="tripinfo_straightS_6" vType="vehicleS_6" speedFactor="1.13" vaporized=""/>
    <tripinfo id="straightW_79" depart="45.00" departLane="edgeW_O_3" departPos="4.78" departSpeed="0.00" departDelay="1.00" arrival="170.00" arrivalLane="edgeE_I_2" arrivalPos="976.10" arrivalSpeed="13.66" duration="125.00" routeLength="1695.22" waitingTime="0.00" waitingCount="0" stopTime="0.00" timeLoss="18.95" rerouteNo="0" devices="tripinfo_straightW_79" vType="vehicleW_79" speedFactor="1.21" vaporized=""/>
    <tripinfo id="straightS_26" depart="14.00" departLane="edgeS_O_5" departPos="5.28" departSpeed="0.00" departDelay="0.00" arrival="171.00" arrivalLane="edgeN_I_4" arrivalPos="479.30" arrivalSpeed="24.97" duration="157.00" routeLength="1494.72" waitingTime="67.00" waitingCount="1" stopTime="0.00" timeLoss="86.18" rerouteNo="0" devices="tripinfo_straightS_26" vType="vehicleS_26" speedFactor="1.00" vaporized=""/>
    <tripinfo id="straightS_70" depart="41.00" departLane="edgeS_O_3" departPos="5.39" departSpeed="0.00" departDelay="0.00" arrival="171.00" arrivalLane="edgeN_I_5" arrivalPos="479.30" arrivalSpeed="27.18" duration="130.00" routeLength="1494.61" waitingTime="48.00" waitingCount="1" stopTime="0.00" timeLoss="66.37" rerouteNo="0" devices="tripinfo_straightS_70" vType="vehicleS_70" speedFactor="1.11" vaporized=""/>
    <tripinfo id="leftE_24" depart="12.00" departLane="edgeE_O_5" departPos="5.51" departSpeed="0.00" departDelay="0.00" arrival="172.00" arrivalLane="edgeS_I_6" arrivalPos="979.30" arrivalSpeed="26.47" duration="160.00" routeLength="1993.62" waitingTime="46.00" waitingCount="1" stopTime="0.00" timeLoss="67.85" rerouteNo="0" devices="tripinfo_leftE_24" vType="vehicleE_24" speedFactor="1.04" vaporized=""/>
    <tripinfo id="straightS_28" depart="15.00" departLane="edgeS_O_2" departPos="4.84" departSpeed="0.00" departDelay="0.00" arrival="172.00" arrivalLane="edgeN_I_3" arrivalPos="479.30" arrivalSpeed="24.84" duration="157.00" routeLength="1495.16" waitingTime="74.00" waitingCount="1" stopTime="0.00" timeLoss="96.48" rerouteNo="0" devices="tripinfo_straightS_28" vType="vehicleS_28" speedFactor="1.18" vaporized=""/>
    <tripinfo id="straightS_85" depart="47.00" departLane="edgeS_O_4" departPos="4.75" departSpeed="0.00" departDelay="0.00" arrival="172.00" arrivalLane="edgeN_I_6" arrivalPos="479.30" arrivalSpeed="25.28" duration="125.00" routeLength="1495.25" waitingTime="42.00" waitingCount="1" stopTime="0.00" timeLoss="55.37" rerouteNo="0" devices="tripinfo_straightS_85" vType="vehicleS_85" speedFactor="1.01" vaporized=""/>
    <tripinfo id="straightS_76" depart="43.00" departLane="edgeS_O_4" departPos="4.90" departSpeed="0.00" departDelay="0.00" arrival="173.00" arrivalLane="edgeN_I_4" arrivalPos="479.30" arrivalSpeed="23.61" duration="130.00" routeLength="1495.10" waitingTime="40.00" waitingCount="1" stopTime="0.00" timeLoss="55.07" rerouteNo="0" devices="tripinfo_straightS_76" vType="vehicleS_76" speedFactor="0.95" vaporized=""/>
    <tripinfo id="straightS_32" depart="17.00" departLane="edgeS_O_5" departPos="4.77" departSpeed="0.00" departDelay="0.00" arrival="174.00" arrivalLane="edgeN_I_3" arrivalPos="479.30" arrivalSpeed="23.20" duration="157.00" routeLength="1495.23" waitingTime="67.00" waitingCount="1" stopTime="0.00" timeLoss="82.13" rerouteNo="0" devices="tripinfo_straightS_32" vType="vehicleS_32" speedFactor="0.95" vaporized=""/>
    <tripinfo id="straightS_102" depart="56.00" departLane="edgeS_O_1" departPos="5.06" departSpeed="0.00" departDelay="0.00" arrival="174.00" arrivalLane="edgeN_I_4" arrivalPos="479.30" arrivalSpeed="25.16" duration="118.00" routeLength="1494.93" waitingTime="33.00" waitingCount="1" stopTime="0.00" timeLoss="48.68" rerouteNo="0" devices="tripinfo_straightS_102" vType="vehicleS_102" speedFactor="1.02" vaporized=""/>
    <tripinfo id="straightS_37" depart="19.00" departLane="edgeS_O_2" departPos="4.37" departSpeed="0.00" departDelay="0.00" arrival="175.00" arrivalLane="edgeN_I_1" arrivalPos="479.30" arrivalSpeed="19.67" duration="156.00" routeLength="1495.63" waitingTime="56.00" waitingCount="1" stopTime="0.00" timeLoss="70.63" rerouteNo="0" devices="tripinfo_straightS_37" vType="vehicleS_37" speedFactor="0.83" vaporized=""/>
    <tripinfo id="straightS_42" depart="21.00" departLane="edgeS_O_4" departPos="4.14" departSpeed="0.00" departDelay="0.00" arrival="175.00" arrivalLane="edgeN_I_2" arrivalPos="479.30" arrivalSpeed="20.30" duration="154.00" routeLength="1495.86" waitingTime="54.00" waitingCount="1" stopTime="0.00" timeLoss="70.54" rerouteNo="0" devices="tripinfo_straightS_42" vType="vehicleS_42" speedFactor="0.84" vaporized=""/>
    <tripinfo id="straightS_94" depart="51.00" departLane="edgeS_O_5" departPos="4.87" departSpeed="0.00" departDelay="0.00" arrival="175.00" arrivalLane="edgeN_I_5" arrivalPos="479.30" arrivalSpeed="24.91" duration="124.00" routeLength="1495.13" waitingTime="36.00" waitingCount="1" stopTime="0.00" timeLoss="51.24" rerouteNo="0" devices="tripinfo_straightS_94" vType="vehicleS_94" speedFactor="0.98" vaporized=""/>
    <tripinfo id="straightS_110" depart="59.00" departLane="edgeS_O_1" departPos="5.28" departSpeed="0.00" departDelay="0.00" arrival="175.00" arrivalLane="edgeN_I_3" arrivalPos="479.30" arrivalSpeed="22.28" duration="116.00" routeLength="1494.72" waitingTime="24.00" waitingCount="3" stopTime="0.00" timeLoss="52.32" rerouteNo="0" devices="tripinfo_straightS_110" vType="vehicleS_110" speedFactor="1.11" vaporized=""/>
    <tripinfo id="leftE_40" depart="20.00" departLane="edgeE_O_5" departPos="4.27" departSpeed="0.00" departDelay="0.00" arrival="176.00" arrivalLane="edgeS_I_5" arrivalPos="979.30" arrivalSpeed="23.78" duration="156.00" routeLength="1994.86" waitingTime="36.00" waitingCount="1" stopTime="0.00" timeLoss="54.99" rerouteNo="0" devices="tripinfo_leftE_40" vType="vehicleE_40" speedFactor="0.95" vaporized=""/>
    <tripinfo id="uturnS_51" depart="26.00" departLane="edgeS_O_6" departPos="4.22" departSpeed="0.00" departDelay="0.00" arrival="176.00" arrivalLane="edgeS_I_4" arrivalPos="979.30" arrivalSpeed="20.51" duration="150.00" routeLength="1959.06" waitingTime="31.00" waitingCount="1" stopTime="0.00" timeLoss="45.08" rerouteNo="0" devices="tripinfo_uturnS_51" vType="vehicleS_51" speedFactor="0.85" vaporized=""/>
    <tripinfo id="straightS_151" depart="86.00" departLane="edgeS_O_5" departPos="4.91" departSpeed="0.00" departDelay="0.00" arrival="176.00" arrivalLane="edgeN_I_4" arrivalPos="479.30" arrivalSpeed="26.45" duration="90.00" routeLength="1495.09" waitingTime="2.00" waitingCount="1" stopTime="0.00" timeLoss="23.29" rerouteNo="0" devices="tripinfo_straightS_151" vType="vehicleS_151" speedFactor="1.06" vaporized=""/>
    <tripinfo id="straightS_104" depart="57.00" departLane="edgeS_O_3" departPos="5.00" departSpeed="0.00" departDelay="0.00" arrival="177.00" arrivalLane="edgeN_I_2" arrivalPos="479.30" arrivalSpeed="24.81" duration="120.00" routeLength="1495.00" waitingTime="23.00" waitingCount="2" stopTime="0.00" timeLoss="48.05" rerouteNo="0" devices="tripinfo_straightS_104" vType="vehicleS_104" speedFactor="0.98" vaporized=""/>
    <tripinfo id="straightS_122" depart="68.00" departLane="edgeS_O_1" departPos="4.42" departSpeed="0.00" departDelay="0.00" arrival="177.00" arrivalLane="edgeN_I_5" arrivalPos="479.30" arrivalSpeed="24.03" duration="109.00" routeLength="1495.58" waitingTime="19.00" waitingCount="1" stopTime="0.00" timeLoss="36.05" rerouteNo="0" devices="tripinfo_straightS_122" vType="vehicleS_122" speedFactor="0.97" vaporized=""/>
    <tripinfo id="straightE_35" depart="18.00" departLane="edgeE_O_3" departPos="4.32" departSpeed="0.00" departDelay="0.00" arrival="178.00" arrivalLane="edgeW_I_1" arrivalPos="676.10" arrivalSpeed="7.88" duration="160.00" routeLength="1695.68" waitingTime="0.00" waitingCount="0" stopTime="0.00" timeLoss="12.66" rerouteNo="0" devices="tripinfo_straightE_35" vType="vehicleE_35" speedFactor="0.80" vaporized=""/>
    <tripinfo id="straightW_66" depart="41.00" departLane="edgeW_O_4" departPos="5.46" departSpeed="0.00" departDelay="3.00" arrival="178.00" arrivalLane="edgeE_I_1" arrivalPos="976.10" arrivalSpeed="10.22" duration="137.00" routeLength="1694.54" waitingTime="0.00" waitingCount="0" stopTime="0.00" timeLoss="11.17" rerouteNo="0" devices="tripinfo_straightW_66" vType="vehicleW_66" speedFactor="1.02" vaporized=""/>
    <tripinfo id="straightS_143" depart="81.00" departLane="edgeS_O_3" departPos="5.01" departSpeed="0.00" departDelay="0.00" arrival="178.00" arrivalLane="edgeN_I_3" arrivalPos="479.30" arrivalSpeed="26.21" duration="97.00" routeLength="1494.99" waitingTime="4.00" waitingCount="1" stopTime="0.00" timeLoss="28.07" rerouteNo="0" devices="tripinfo_straightS_143" vType="vehicleS_143" speedFactor="1.04" vaporized=""/>
    <tripinfo id="straightS_164" depart="94.00" departLane="edgeS_O_3" departPos="4.40" departSpeed="0.00" departDelay="0.00" arrival="179.00" arrivalLane="edgeN_I_5" arrivalPos="479.30" arrivalSpeed="24.83" duration="85.00" routeLength="1495.60" waitingTime="0.00" waitingCount="0" stopTime="0.00" timeLoss="14.68" rerouteNo="0" devices="tripinfo_straightS_164" vType="vehicleS_164" speedFactor="1.01" vaporized=""/>
    <tripinfo id="uturnN_218" depart="121.00" departLane="edgeN_O_6" departPos="3.96" departSpeed="0.00" departDelay="1.00" arrival="179.00" arrivalLane="edgeN_I_6" arrivalPos="479.30" arrivalSpeed="28.98" duration="58.00" routeLength="959.32" waitingTime="3.00" waitingCount="1" stopTime="0.00" timeLoss="18.99" rerouteNo="0" devices="tripinfo_uturnN_218" vType="vehicleN_218" speedFactor="1.14" vaporized=""/>
    <tripinfo id="straightW_71" depart="42.00" departLane="edgeW_O_3" departPos="5.21" departSpeed="0.00" departDelay="1.00" arrival="180.00" arrivalLane="edgeE_I_1" arrivalPos="976.10" arrivalSpeed="10.39" duration="138.00" routeLength="1694.79" waitingTime="0.00" waitingCount="0" stopTime="0.00" timeLoss="11.03" rerouteNo="0" devices="tripinfo_straightW_71" vType="vehicleW_71" speedFactor="1.01" vaporized=""/>
    <tripinfo id="straightE_96" depart="51.00" departLane="edgeE_O_2" departPos="4.96" departSpeed="0.00" departDelay="0.00" arrival="181.00" arrivalLane="edgeW_I_1" arrivalPos="676.10" arrivalSpeed="10.71" duration="130.00" routeLength="1695.05" waitingTime="0.00" waitingCount="0" stopTime="0.00" timeLoss="10.85" rerouteNo="0" devices="tripinfo_straightE_96" vType="vehicleE_96" speedFactor="0.99" vaporized=""/>
    <tripinfo id="uturnN_223" depart="124.00" departLane="edgeN_O_6" departPos="4.13" departSpeed="0.00" departDelay="0.00" arrival="182.00" arrivalLane="edgeN_I_6" arrivalPos="479.30" arrivalSpeed="28.15" duration="58.00" routeLength="959.15" waitingTime="1.00" waitingCount="1" stopTime="0.00" timeLoss="19.06" rerouteNo="0" devices="tripinfo_uturnN_223" vType="vehicleN_223" speedFactor="1.14" vaporized=""/>
    <tripinfo id="straightW_56" depart="31.00" departLane="edgeW_O_4" departPos="3.91" departSpeed="0.00" departDelay="1.00" arrival="184.00" arrivalLane="edgeE_I_1" arrivalPos="976.10" arrivalSpeed="9.93" duration="153.00" routeLength="1696.09" waitingTime="0.00" waitingCount="0" stopTime="0.00" timeLoss="12.57" rerouteNo="0" devices="tripinfo_straightW_56" vType="vehicleW_56" speedFactor="0.91" vaporized=""/>