<?xml version="1.0" encoding="UTF-8"?>

<!-- generated on 2021-10-23 04:06:19 by Eclipse SUMO sumo Version 1.10.0
<configuration xmlns:xsi="http://www.w3.org/2001/XMLSchema-instance" xsi:noNamespaceSchemaLocation="http://sumo.dlr.de/xsd/sumoConfiguration.xsd">

    <input>
        <net-file value="data10/cross.net.xml"/>
        <route-files value="data10/cross.rou.xml"/>
        <additional-files value="data10/cross.tls.xml"/>
    </input>

    <output>
        <tripinfo-output value="data10/tripinfo.xml"/>
        <tripinfo-output.write-unfinished value="true"/>
    </output>

    <time>
        <begin value="0"/>
        <step-length value="1"/>
    </time>

    <processing>
        <threads value="5"/>
        <time-to-teleport value="-1"/>
    </processing>

    <report>
        <verbose value="true"/>
        <no-warnings value="true"/>
        <no-step-log value="true"/>
    </report>

    <traci_server>
        <remote-port value="54640"/>
    </traci_server>

    <gui_only>
        <gui-settings-file value="data10/viewsettings.xml"/>
        <tracker-interval value="1"/>
    </gui_only>

</configuration>
-->

<tripinfos xmlns:xsi="http://www.w3.org/2001/XMLSchema-instance" xsi:noNamespaceSchemaLocation="http://sumo.dlr.de/xsd/tripinfo_file.xsd">
    <tripinfo id="straightW_2" depart="1.00" departLane="edgeW_O_4" departPos="5.33" departSpeed="0.00" departDelay="0.00" arrival="74.00" arrivalLane="edgeE_I_1" arrivalPos="276.10" arrivalSpeed="17.92" duration="73.00" routeLength="1194.67" waitingTime="0.00" waitingCount="0" stopTime="0.00" timeLoss="6.98" rerouteNo="0" devices="tripinfo_straightW_2" vType="vehicleW_2" speedFactor="1.25" vaporized=""/>
    <tripinfo id="straightW_4" depart="5.00" departLane="edgeW_O_2" departPos="4.51" departSpeed="0.00" departDelay="0.00" arrival="97.00" arrivalLane="edgeE_I_2" arrivalPos="276.10" arrivalSpeed="13.71" duration="92.00" routeLength="1195.49" waitingTime="0.00" waitingCount="0" stopTime="0.00" timeLoss="7.39" rerouteNo="0" devices="tripinfo_straightW_4" vType="vehicleW_4" speedFactor="0.99" vaporized=""/>
    <tripinfo id="rightE_23" depart="17.00" departLane="edgeE_O_1" departPos="5.31" departSpeed="0.00" departDelay="0.00" arrival="97.00" arrivalLane="edgeN_I_1" arrivalPos="679.30" arrivalSpeed="19.03" duration="80.00" routeLength="960.24" waitingTime="12.00" waitingCount="1" stopTime="0.00" timeLoss="25.08" rerouteNo="0" devices="tripinfo_rightE_23" vType="vehicleE_23" speedFactor="1.05" vaporized=""/>
    <tripinfo id="straightW_19" depart="16.00" departLane="edgeW_O_2" departPos="4.17" departSpeed="0.00" departDelay="0.00" arrival="100.00" arrivalLane="edgeE_I_2" arrivalPos="276.10" arrivalSpeed="15.32" duration="84.00" routeLength="1195.83" waitingTime="0.00" waitingCount="0" stopTime="0.00" timeLoss="7.18" rerouteNo="0" devices="tripinfo_straightW_19" vType="vehicleW_19" speedFactor="1.08" vaporized=""/>
    <tripinfo id="rightE_55" depart="34.00" departLane="edgeE_O_1" departPos="4.43" departSpeed="0.00" departDelay="0.00" arrival="101.00" arrivalLane="edgeN_I_2" arrivalPos="679.30" arrivalSpeed="21.79" duration="67.00" routeLength="961.13" waitingTime="2.00" waitingCount="1" stopTime="0.00" timeLoss="18.36" rerouteNo="0" devices="tripinfo_rightE_55" vType="vehicleE_55" speedFactor="1.19" vaporized=""/>
    <tripinfo id="straightW_9" depart="8.00" departLane="edgeW_O_3" departPos="4.47" departSpeed="0.00" departDelay="0.00" arrival="102.00" arrivalLane="edgeE_I_2" arrivalPos="276.10" arrivalSpeed="13.53" duration="94.00" routeLength="1195.53" waitingTime="0.00" waitingCount="0" stopTime="0.00" timeLoss="7.23" rerouteNo="0" devices="tripinfo_straightW_9" vType="vehicleW_9" speedFactor="0.96" vaporized=""/>
    <tripinfo id="rightE_35" depart="23.00" departLane="edgeE_O_1" departPos="4.53" departSpeed="0.00" departDelay="0.00" arrival="102.00" arrivalLane="edgeN_I_1" arrivalPos="679.30" arrivalSpeed="18.22" duration="79.00" routeLength="961.03" waitingTime="8.00" waitingCount="1" stopTime="0.00" timeLoss="20.90" rerouteNo="0" devices="tripinfo_rightE_35" vType="vehicleE_35" speedFactor="1.00" vaporized=""/>
    <tripinfo id="rightE_43" depart="27.00" departLane="edgeE_O_1" departPos="4.58" departSpeed="0.00" departDelay="0.00" arrival="111.00" arrivalLane="edgeN_I_1" arrivalPos="679.30" arrivalSpeed="14.60" duration="84.00" routeLength="960.98" waitingTime="3.00" waitingCount="1" stopTime="0.00" timeLoss="16.52" rerouteNo="0" devices="tripinfo_rightE_43" vType="vehicleE_43" speedFactor="0.85" vaporized=""/>
    <tripinfo id="rightW_12" depart="10.00" departLane="edgeW_O_1" departPos="5.24" departSpeed="0.00" departDelay="0.00" arrival="113.00" arrivalLane="edgeS_I_1" arrivalPos="479.30" arrivalSpeed="16.06" duration="103.00" routeLength="1360.32" waitingTime="0.00" waitingCount="0" stopTime="0.00" timeLoss="11.06" rerouteNo="0" devices="tripinfo_rightW_12" vType="vehicleW_12" speedFactor="0.96" vaporized=""/>
    <tripinfo id="rightW_14" depart="12.00" departLane="edgeW_O_1" departPos="4.91" departSpeed="0.00" departDelay="0.00" arrival="115.00" arrivalLane="edgeS_I_2" arrivalPos="479.30" arrivalSpeed="17.50" duration="103.00" routeLength="1360.65" waitingTime="0.00" waitingCount="0" stopTime="0.00" timeLoss="13.04" rerouteNo="0" devices="tripinfo_rightW_14" vType="vehicleW_14" speedFactor="0.99" vaporized=""/>
    <tripinfo id="straightW_5" depart="8.00" departLane="edgeW_O_2" departPos="5.11" departSpeed="0.00" departDelay="2.00" arrival="116.00" arrivalLane="edgeE_I_1" arrivalPos="276.10" arrivalSpeed="11.16" duration="108.00" routeLength="1194.89" waitingTime="0.00" waitingCount="0" stopTime="0.00" timeLoss="9.67" rerouteNo="0" devices="tripinfo_straightW_5" vType="vehicleW_5" speedFactor="0.84" vaporized=""/>
    <tripinfo id="straightW_41" depart="26.00" departLane="edgeW_O_4" departPos="5.13" departSpeed="0.00" departDelay="0.00" arrival="116.00" arrivalLane="edgeE_I_3" arrivalPos="276.10" arrivalSpeed="14.36" duration="90.00" routeLength="1194.87" waitingTime="0.00" waitingCount="0" stopTime="0.00" timeLoss="7.46" rerouteNo="0" devices="tripinfo_straightW_41" vType="vehicleW_41" speedFactor="1.01" vaporized=""/>
    <tripinfo id="rightW_18" depart="15.00" departLane="edgeW_O_1" departPos="4.65" departSpeed="0.00" departDelay="0.00" arrival="117.00" arrivalLane="edgeS_I_1" arrivalPos="479.30" arrivalSpeed="17.73" duration="102.00" routeLength="1360.91" waitingTime="0.00" waitingCount="0" stopTime="0.00" timeLoss="13.53" rerouteNo="0" devices="tripinfo_rightW_18" vType="vehicleW_18" speedFactor="1.00" vaporized=""/>
    <tripinfo id="straightW_22" depart="19.00" departLane="edgeW_O_2" departPos="5.20" departSpeed="0.00" departDelay="2.00" arrival="119.00" arrivalLane="edgeE_I_2" arrivalPos="276.10" arrivalSpeed="13.31" duration="100.00" routeLength="1194.80" waitingTime="0.00" waitingCount="0" stopTime="0.00" timeLoss="8.02" rerouteNo="0" devices="tripinfo_straightW_22" vType="vehicleW_22" speedFactor="0.90" vaporized=""/>
    <tripinfo id="rightW_40" depart="25.00" departLane="edgeW_O_1" departPos="4.97" departSpeed="0.00" departDelay="0.00" arrival="120.00" arrivalLane="edgeS_I_1" arrivalPos="479.30" arrivalSpeed="19.77" duration="95.00" routeLength="1360.59" waitingTime="0.00" waitingCount="0" stopTime="0.00" timeLoss="14.34" rerouteNo="0" devices="tripinfo_rightW_40" vType="vehicleW_40" speedFactor="1.10" vaporized=""/>
    <tripinfo id="straightE_1" depart="0.00" departLane="edgeE_O_4" departPos="4.42" departSpeed="0.00" departDelay="0.00" arrival="122.00" arrivalLane="edgeW_I_1" arrivalPos="876.10" arrivalSpeed="14.38" duration="122.00" routeLength="1195.58" waitingTime="30.00" waitingCount="1" stopTime="0.00" timeLoss="41.71" rerouteNo="0" devices="tripinfo_straightE_1" vType="vehicleE_1" speedFactor="1.01" vaporized=""/>
    <tripinfo id="straightE_26" depart="18.00" departLane="edgeE_O_3" departPos="4.39" departSpeed="0.00" departDelay="0.00" arrival="122.00" arrivalLane="edgeW_I_3" arrivalPos="876.10" arrivalSpeed="14.73" duration="104.00" routeLength="1195.61" waitingTime="11.00" waitingCount="1" stopTime="0.00" timeLoss="24.98" rerouteNo="0" devices="tripinfo_straightE_26" vType="vehicleE_26" speedFactor="1.03" vaporized=""/>
    <tripinfo id="straightE_30" depart="19.00" departLane="edgeE_O_2" departPos="4.99" departSpeed="0.00" departDelay="0.00" arrival="123.00" arrivalLane="edgeW_I_2" arrivalPos="876.10" arrivalSpeed="15.62" duration="104.00" routeLength="1195.01" waitingTime="12.00" waitingCount="1" stopTime="0.00" timeLoss="26.52" rerouteNo="0" devices="tripinfo_straightE_30" vType="vehicleE_30" speedFactor="1.05" vaporized=""/>
    <tripinfo id="straightW_52" depart="36.00" departLane="edgeW_O_4" departPos="4.65" departSpeed="0.00" departDelay="4.00" arrival="123.00" arrivalLane="edgeE_I_4" arrivalPos="276.10" arrivalSpeed="15.20" duration="87.00" routeLength="1195.35" waitingTime="0.00" waitingCount="0" stopTime="0.00" timeLoss="6.81" rerouteNo="0" devices="tripinfo_straightW_52" vType="vehicleW_52" speedFactor="1.04" vaporized=""/>
    <tripinfo id="straightW_49" depart="30.00" departLane="edgeW_O_4" departPos="4.46" departSpeed="0.00" departDelay="0.00" arrival="124.00" arrivalLane="edgeE_I_2" arrivalPos="276.10" arrivalSpeed="13.81" duration="94.00" routeLength="1195.54" waitingTime="0.00" waitingCount="0" stopTime="0.00" timeLoss="6.88" rerouteNo="0" devices="tripinfo_straightW_49" vType="vehicleW_49" speedFactor="0.96" vaporized=""/>
    <tripinfo id="straightW_37" depart="24.00" departLane="edgeW_O_2" departPos="4.47" departSpeed="0.00" departDelay="0.00" arrival="125.00" arrivalLane="edgeE_I_2" arrivalPos="276.10" arrivalSpeed="15.37" duration="101.00" routeLength="1195.53" waitingTime="0.00" waitingCount="0" stopTime="0.00" timeLoss="23.81" rerouteNo="0" devices="tripinfo_straightW_37" vType="vehicleW_37" speedFactor="1.07" vaporized=""/>
    <tripinfo id="straightE_38" depart="24.00" departLane="edgeE_O_4" departPos="4.49" departSpeed="0.00" departDelay="0.00" arrival="125.00" arrivalLane="edgeW_I_1" arrivalPos="876.10" arrivalSpeed="14.75" duration="101.00" routeLength="1195.51" waitingTime="5.00" waitingCount="1" stopTime="0.00" timeLoss="21.37" rerouteNo="0" devices="tripinfo_straightE_38" vType="vehicleE_38" speedFactor="1.02" vaporized=""/>
    <tripinfo id="straightW_50" depart="33.00" departLane="edgeW_O_4" departPos="5.55" departSpeed="0.00" departDelay="2.00" arrival="125.00" arrivalLane="edgeE_I_3" arrivalPos="276.10" arrivalSpeed="13.52" duration="92.00" routeLength="1194.45" waitingTime="0.00" waitingCount="0" stopTime="0.00" timeLoss="8.96" rerouteNo="0" devices="tripinfo_straightW_50" vType="vehicleW_50" speedFactor="1.00" vaporized=""/>
    <tripinfo id="straightE_17" depart="14.00" departLane="edgeE_O_4" departPos="5.01" departSpeed="0.00" departDelay="0.00" arrival="126.00" arrivalLane="edgeW_I_2" arrivalPos="876.10" arrivalSpeed="13.55" duration="112.00" routeLength="1194.99" waitingTime="16.00" waitingCount="1" stopTime="0.00" timeLoss="28.09" rerouteNo="0" devices="tripinfo_straightE_17" vType="vehicleE_17" speedFactor="0.97" vaporized=""/>
    <tripinfo id="straightE_31" depart="20.00" departLane="edgeE_O_3" departPos="5.09" departSpeed="0.00" departDelay="0.00" arrival="126.00" arrivalLane="edgeW_I_3" arrivalPos="876.10" arrivalSpeed="14.51" duration="106.00" routeLength="1194.91" waitingTime="10.00" waitingCount="2" stopTime="0.00" timeLoss="24.70" rerouteNo="0" devices="tripinfo_straightE_31" vType="vehicleE_31" speedFactor="1.00" vaporized=""/>
    <tripinfo id="straightW_46" depart="28.00" departLane="edgeW_O_3" departPos="4.57" departSpeed="0.00" departDelay="0.00" arrival="126.00" arrivalLane="edgeE_I_3" arrivalPos="276.10" arrivalSpeed="15.31" duration="98.00" routeLength="1195.42" waitingTime="0.00" waitingCount="0" stopTime="0.00" timeLoss="18.14" rerouteNo="0" devices="tripinfo_straightW_46" vType="vehicleW_46" speedFactor="1.04" vaporized=""/>
    <tripinfo id="straightW_58" depart="37.00" departLane="edgeW_O_3" departPos="5.50" departSpeed="0.00" departDelay="0.00" arrival="126.00" arrivalLane="edgeE_I_4" arrivalPos="276.10" arrivalSpeed="14.84" duration="89.00" routeLength="1194.50" waitingTime="0.00" waitingCount="0" stopTime="0.00" timeLoss="7.80" rerouteNo="0" devices="tripinfo_straightW_58" vType="vehicleW_58" speedFactor="1.02" vaporized=""/>
    <tripinfo id="rightW_42" depart="28.00" departLane="edgeW_O_1" departPos="5.42" departSpeed="0.00" departDelay="1.00" arrival="127.00" arrivalLane="edgeS_I_1" arrivalPos="479.30" arrivalSpeed="18.56" duration="99.00" routeLength="1360.15" waitingTime="0.00" waitingCount="0" stopTime="0.00" timeLoss="10.69" rerouteNo="0" devices="tripinfo_rightW_42" vType="vehicleW_42" speedFactor="1.01" vaporized=""/>
    <tripinfo id="straightW_76" depart="50.00" departLane="edgeW_O_4" departPos="4.34" departSpeed="0.00" departDelay="0.00" arrival="127.00" arrivalLane="edgeE_I_2" arrivalPos="276.10" arrivalSpeed="18.34" duration="77.00" routeLength="1195.66" waitingTime="0.00" waitingCount="0" stopTime="0.00" timeLoss="9.76" rerouteNo="0" devices="tripinfo_straightW_76" vType="vehicleW_76" speedFactor="1.23" vaporized=""/>
    <tripinfo id="straightW_29" depart="19.00" departLane="edgeW_O_4" departPos="4.85" departSpeed="0.00" departDelay="0.00" arrival="129.00" arrivalLane="edgeE_I_1" arrivalPos="276.10" arrivalSpeed="11.16" duration="110.00" routeLength="1195.15" waitingTime="0.00" waitingCount="0" stopTime="0.00" timeLoss="9.51" rerouteNo="0" devices="tripinfo_straightW_29" vType="vehicleW_29" speedFactor="0.83" vaporized=""/>
    <tripinfo id="rightW_59" depart="39.00" departLane="edgeW_O_1" departPos="4.92" departSpeed="0.00" departDelay="0.00" arrival="131.00" arrivalLane="edgeS_I_2" arrivalPos="479.30" arrivalSpeed="20.95" duration="92.00" routeLength="1360.64" waitingTime="0.00" waitingCount="0" stopTime="0.00" timeLoss="18.77" rerouteNo="0" devices="tripinfo_rightW_59" vType="vehicleW_59" speedFactor="1.22" vaporized=""/>
    <tripinfo id="rightW_54" depart="33.00" departLane="edgeW_O_1" departPos="4.86" departSpeed="0.00" departDelay="0.00" arrival="134.00" arrivalLane="edgeS_I_1" arrivalPos="479.30" arrivalSpeed="18.04" duration="101.00" routeLength="1360.70" waitingTime="0.00" waitingCount="0" stopTime="0.00" timeLoss="10.33" rerouteNo="0" devices="tripinfo_rightW_54" vType="vehicleW_54" speedFactor="0.98" vaporized=""/>
    <tripinfo id="straightE_70" depart="46.00" departLane="edgeE_O_4" departPos="4.30" departSpeed="0.00" departDelay="0.00" arrival="134.00" arrivalLane="edgeW_I_1" arrivalPos="876.10" arrivalSpeed="14.08" duration="88.00" routeLength="1195.70" waitingTime="0.00" waitingCount="0" stopTime="0.00" timeLoss="6.79" rerouteNo="0" devices="tripinfo_straightE_70" vType="vehicleE_70" speedFactor="1.00" vaporized=""/>
    <tripinfo id="rightW_57" depart="36.00" departLane="edgeW_O_1" departPos="4.66" departSpeed="0.00" departDelay="1.00" arrival="137.00" arrivalLane="edgeS_I_1" arrivalPos="479.30" arrivalSpeed="18.68" duration="101.00" routeLength="1360.90" waitingTime="0.00" waitingCount="0" stopTime="0.00" timeLoss="17.00" rerouteNo="0" devices="tripinfo_rightW_57" vType="vehicleW_57" speedFactor="1.06" vaporized=""/>
    <tripinfo id="rightE_112" depart="74.00" departLane="edgeE_O_1" departPos="4.48" departSpeed="0.00" departDelay="0.00" arrival="137.00" arrivalLane="edgeN_I_1" arrivalPos="679.30" arrivalSpeed="17.88" duration="63.00" routeLength="961.08" waitingTime="0.00" waitingCount="0" stopTime="0.00" timeLoss="7.56" rerouteNo="0" devices="tripinfo_rightE_112" vType="vehicleE_112" speedFactor="1.04" vaporized=""/>
    <tripinfo id="rightE_115" depart="77.00" departLane="edgeE_O_1" departPos="4.52" departSpeed="0.00" departDelay="0.00" arrival="140.00" arrivalLane="edgeN_I_1" arrivalPos="679.30" arrivalSpeed="18.66" duration="63.00" routeLength="961.04" waitingTime="0.00" waitingCount="0" stopTime="0.00" timeLoss="8.30" rerouteNo="0" devices="tripinfo_rightE_115" vType="vehicleE_115" speedFactor="1.07" vaporized=""/>
    <tripinfo id="leftN_72" depart="48.00" departLane="edgeN_O_6" departPos="4.55" departSpeed="0.00" departDelay="0.00" arrival="146.00" arrivalLane="edgeE_I_5" arrivalPos="276.10" arrivalSpeed="12.80" duration="98.00" routeLength="989.43" waitingTime="9.00" waitingCount="1" stopTime="0.00" timeLoss="20.75" rerouteNo="0" devices="tripinfo_leftN_72" vType="vehicleN_72" speedFactor="0.86" vaporized=""/>
    <tripinfo id="leftN_96" depart="66.00" departLane="edgeN_O_6" departPos="5.25" departSpeed="0.00" departDelay="0.00" arrival="147.00" arrivalLane="edgeE_I_4" arrivalPos="276.10" arrivalSpeed="13.54" duration="81.00" routeLength="988.73" waitingTime="0.00" waitingCount="0" stopTime="0.00" timeLoss="13.48" rerouteNo="0" devices="tripinfo_leftN_96" vType="vehicleN_96" speedFactor="0.98" vaporized=""/>
    <tripinfo id="uturnS_25" depart="18.00" departLane="edgeS_O_6" departPos="5.37" departSpeed="0.00" departDelay="0.00" arrival="150.00" arrivalLane="edgeS_I_5" arrivalPos="479.30" arrivalSpeed="17.00" duration="132.00" routeLength="957.91" waitingTime="59.00" waitingCount="1" stopTime="0.00" timeLoss="70.01" rerouteNo="0" devices="tripinfo_uturnS_25" vType="vehicleS_25" speedFactor="0.94" vaporized=""/>
    <tripinfo id="uturnS_74" depart="49.00" departLane="edgeS_O_6" departPos="5.29" departSpeed="0.00" departDelay="0.00" arrival="150.00" arrivalLane="edgeS_I_6" arrivalPos="479.30" arrivalSpeed="20.27" duration="101.00" routeLength="957.99" waitingTime="34.00" waitingCount="1" stopTime="0.00" timeLoss="47.90" rerouteNo="0" devices="tripinfo_uturnS_74" vType="vehicleS_74" speedFactor="1.10" vaporized=""/>
    <tripinfo id="straightE_66" depart="45.00" departLane="edgeE_O_3" departPos="5.42" departSpeed="0.00" departDelay="0.00" arrival="151.00" arrivalLane="edgeW_I_1" arrivalPos="876.10" arrivalSpeed="11.63" duration="106.00" routeLength="1194.58" waitingTime="0.00" waitingCount="0" stopTime="0.00" timeLoss="8.21" rerouteNo="0" devices="tripinfo_straightE_66" vType="vehicleE_66" speedFactor="0.82" vaporized=""/>
    <tripinfo id="uturnS_119" depart="80.00" departLane="edgeS_O_6" departPos="5.40" departSpeed="0.00" departDelay="0.00" arrival="159.00" arrivalLane="edgeS_I_5" arrivalPos="479.30" arrivalSpeed="17.07" duration="79.00" routeLength="957.88" waitingTime="0.00" waitingCount="0" stopTime="0.00" timeLoss="16.18" rerouteNo="0" devices="tripinfo_uturnS_119" vType="vehicleS_119" speedFactor="0.94" vaporized=""/>
    <tripinfo id="straightE_117" depart="78.00" departLane="edgeE_O_3" departPos="4.46" departSpeed="0.00" departDelay="0.00" arrival="169.00" arrivalLane="edgeW_I_1" arrivalPos="876.10" arrivalSpeed="13.31" duration="91.00" routeLength="1195.54" waitingTime="0.00" waitingCount="0" stopTime="0.00" timeLoss="6.89" rerouteNo="0" devices="tripinfo_straightE_117" vType="vehicleE_117" speedFactor="0.96" vaporized=""/>
    <tripinfo id="rightS_45" depart="28.00" departLane="edgeS_O_1" departPos="4.61" departSpeed="0.00" departDelay="0.00" arrival="173.00" arrivalLane="edgeE_I_2" arrivalPos="276.10" arrivalSpeed="15.50" duration="145.00" routeLength="760.95" waitingTime="88.00" waitingCount="1" stopTime="0.00" timeLoss="99.80" rerouteNo="0" devices="tripinfo_rightS_45" vType="vehicleS_45" speedFactor="1.14" vaporized=""/>
    <tripinfo id="rightS_13" depart="12.00" departLane="edgeS_O_1" departPos="5.42" departSpeed="0.00" departDelay="0.00" arrival="174.00" arrivalLane="edgeE_I_1" arrivalPos="276.10" arrivalSpeed="13.75" duration="162.00" routeLength="760.13" waitingTime="95.00" waitingCount="1" stopTime="0.00" timeLoss="107.27" rerouteNo="0" devices="tripinfo_rightS_13" vType="vehicleS_13" speedFactor="0.94" vaporized=""/>
    <tripinfo id="rightS_84" depart="55.00" departLane="edgeS_O_2" departPos="4.49" departSpeed="0.00" departDelay="0.00" arrival="176.00" arrivalLane="edgeE_I_1" arrivalPos="276.10" arrivalSpeed="15.14" duration="121.00" routeLength="761.07" waitingTime="58.00" waitingCount="1" stopTime="0.00" timeLoss="72.84" rerouteNo="0" devices="tripinfo_rightS_84" vType="vehicleS_84" speedFactor="1.06" vaporized=""/>
    <tripinfo id="straightN_20" depart="17.00" departLane="edgeN_O_5" departPos="5.11" departSpeed="0.00" departDelay="0.00" arrival="179.00" arrivalLane="edgeS_I_4" arrivalPos="479.30" arrivalSpeed="21.43" duration="162.00" routeLength="1194.89" waitingTime="85.00" waitingCount="1" stopTime="0.00" timeLoss="99.46" rerouteNo="0" devices="tripinfo_straightN_20" vType="vehicleN_20" speedFactor="1.18" vaporized=""/>
    <tripinfo id="straightE_121" depart="81.00" departLane="edgeE_O_2" departPos="4.84" departSpeed="0.00" departDelay="0.00" arrival="182.00" arrivalLane="edgeW_I_1" arrivalPos="876.10" arrivalSpeed="12.68" duration="101.00" routeLength="1195.16" waitingTime="0.00" waitingCount="0" stopTime="0.00" timeLoss="8.78" rerouteNo="0" devices="tripinfo_straightE_121" vType="vehicleE_121" speedFactor="0.88" vaporized=""/>
    <tripinfo id="straightN_11" depart="10.00" departLane="edgeN_O_2" departPos="5.62" departSpeed="0.00" departDelay="0.00" arrival="183.00" arrivalLane="edgeS_I_3" arrivalPos="479.30" arrivalSpeed="18.69" duration="173.00" routeLength="1194.38" waitingTime="86.00" waitingCount="1" stopTime="0.00" timeLoss="104.32" rerouteNo="0" devices="tripinfo_straightN_11" vType="vehicleN_11" speedFactor="1.07" vaporized=""/>
    <tripinfo id="straightN_67" depart="47.00" departLane="edgeN_O_5" departPos="5.25" departSpeed="0.00" departDelay="1.00" arrival="184.00" arrivalLane="edgeS_I_6" arrivalPos="479.30" arrivalSpeed="19.24" duration="137.00" routeLength="1194.75" waitingTime="54.00" waitingCount="1" stopTime="0.00" timeLoss="68.33" rerouteNo="0" devices="tripinfo_straightN_67" vType="vehicleN_67" speedFactor="1.07" vaporized=""/>
    <tripinfo id="straightN_6" depart="7.00" departLane="edgeN_O_3" departPos="4.32" departSpeed="0.00" departDelay="0.00" arrival="185.00" arrivalLane="edgeS_I_1" arrivalPos="479.30" arrivalSpeed="15.99" duration="178.00" routeLength="1195.68" waitingTime="86.00" waitingCount="1" stopTime="0.00" timeLoss="98.51" rerouteNo="0" devices="tripinfo_straightN_6" vType="vehicleN_6" speedFactor="0.93" vaporized=""/>
    <tripinfo id="rightS_79" depart="53.00" departLane="edgeS_O_1" departPos="5.16" departSpeed="0.00" departDelay="0.00" arrival="185.00" arrivalLane="edgeE_I_1" arrivalPos="276.10" arrivalSpeed="11.87" duration="132.00" routeLength="760.40" waitingTime="54.00" waitingCount="1" stopTime="0.00" timeLoss="70.42" rerouteNo="0" devices="tripinfo_rightS_79" vType="vehicleS_79" speedFactor="0.84" vaporized=""/>
    <tripinfo id="straightN_32" depart="21.00" departLane="edgeN_O_4" departPos="4.43" departSpeed="0.00" departDelay="0.00" arrival="186.00" arrivalLane="edgeS_I_5" arrivalPos="479.30" arrivalSpeed="16.43" duration="165.00" routeLength="1195.57" waitingTime="74.00" waitingCount="2" stopTime="0.00" timeLoss="87.39" rerouteNo="0" devices="tripinfo_straightN_32" vType="vehicleN_32" speedFactor="0.95" vaporized=""/>
    <tripinfo id="straightN_33" depart="24.00" departLane="edgeN_O_4" departPos="4.94" departSpeed="0.00" departDelay="2.00" arrival="186.00" arrivalLane="edgeS_I_4" arrivalPos="479.30" arrivalSpeed="16.56" duration="162.00" routeLength="1195.06" waitingTime="71.00" waitingCount="1" stopTime="0.00" timeLoss="86.16" rerouteNo="0" devices="tripinfo_straightN_33" vType="vehicleN_33" speedFactor="0.97" vaporized=""/>
    <tripinfo id="rightS_100" depart="69.00" departLane="edgeS_O_2" departPos="4.78" departSpeed="0.00" departDelay="1.00" arrival="186.00" arrivalLane="edgeE_I_2" arrivalPos="276.10" arrivalSpeed="12.76" duration="117.00" routeLength="760.78" waitingTime="44.00" waitingCount="1" stopTime="0.00" timeLoss="58.81" rerouteNo="0" devices="tripinfo_rightS_100" vType="vehicleS_100" speedFactor="0.88" vaporized=""/>
    <tripinfo id="straightN_16" depart="14.00" departLane="edgeN_O_3" departPos="4.17" departSpeed="0.00" departDelay="0.00" arrival="187.00" arrivalLane="edgeS_I_2" arrivalPos="479.30" arrivalSpeed="17.74" duration="173.00" routeLength="1195.83" waitingTime="85.00" waitingCount="1" stopTime="0.00" timeLoss="102.11" rerouteNo="0" devices="tripinfo_straightN_16" vType="vehicleN_16" speedFactor="1.04" vaporized=""/>
    <tripinfo id="straightN_92" depart="61.00" departLane="edgeN_O_4" departPos="5.16" departSpeed="0.00" departDelay="0.00" arrival="187.00" arrivalLane="edgeS_I_5" arrivalPos="479.30" arrivalSpeed="17.59" duration="126.00" routeLength="1194.84" waitingTime="36.00" waitingCount="2" stopTime="0.00" timeLoss="54.12" rerouteNo="0" devices="tripinfo_straightN_92" vType="vehicleN_92" speedFactor="1.02" vaporized=""/>
    <tripinfo id="straightN_137" depart="95.00" departLane="edgeN_O_2" departPos="4.33" departSpeed="0.00" departDelay="0.00" arrival="187.00" arrivalLane="edgeS_I_6" arrivalPos="479.30" arrivalSpeed="20.61" duration="92.00" routeLength="1195.67" waitingTime="7.00" waitingCount="1" stopTime="0.00" timeLoss="27.29" rerouteNo="0" devices="tripinfo_straightN_137" vType="vehicleN_137" speedFactor="1.14" vaporized=""/>
    <tripinfo id="straightN_56" depart="35.00" departLane="edgeN_O_5" departPos="4.80" departSpeed="0.00" departDelay="0.00" arrival="188.00" arrivalLane="edgeS_I_3" arrivalPos="479.30" arrivalSpeed="17.56" duration="153.00" routeLength="1195.19" waitingTime="63.00" waitingCount="1" stopTime="0.00" timeLoss="81.69" rerouteNo="0" devices="tripinfo_straightN_56" vType="vehicleN_56" speedFactor="1.03" vaporized=""/>
    <tripinfo id="rightS_126" depart="85.00" departLane="edgeS_O_2" departPos="4.41" departSpeed="0.00" departDelay="0.00" arrival="188.00" arrivalLane="edgeE_I_1" arrivalPos="276.10" arrivalSpeed="12.74" duration="103.00" routeLength="761.15" waitingTime="31.00" waitingCount="1" stopTime="0.00" timeLoss="46.82" rerouteNo="0" devices="tripinfo_rightS_126" vType="vehicleS_126" speedFactor="0.93" vaporized=""/>
    <tripinfo id="leftS_130" depart="88.00" departLane="edgeS_O_5" departPos="5.62" departSpeed="0.00" departDelay="0.00" arrival="188.00" arrivalLane="edgeW_I_2" arrivalPos="876.10" arrivalSpeed="16.65" duration="100.00" routeLength="1388.36" waitingTime="0.00" waitingCount="0" stopTime="0.00" timeLoss="16.36" rerouteNo="0" devices="tripinfo_leftS_130" vType="vehicleS_130" speedFactor="1.12" vaporized=""/>
    <tripinfo id="straightN_3" depart="2.00" departLane="edgeN_O_4" departPos="5.26" departSpeed="0.00" departDelay="0.00" arrival="189.00" arrivalLane="edgeS_I_1" arrivalPos="479.30" arrivalSpeed="14.14" duration="187.00" routeLength="1194.74" waitingTime="85.00" waitingCount="1" stopTime="0.00" timeLoss="98.39" rerouteNo="0" devices="tripinfo_straightN_3" vType="vehicleN_3" speedFactor="0.83" vaporized=""/>
    <tripinfo id="straightS_51" depart="32.00" departLane="edgeS_O_3" departPos="4.70" departSpeed="0.00" departDelay="0.00" arrival="189.00" arrivalLane="edgeN_I_6" arrivalPos="679.30" arrivalSpeed="21.09" duration="157.00" routeLength="1195.30" waitingTime="82.00" waitingCount="2" stopTime="0.00" timeLoss="96.77" rerouteNo="0" devices="tripinfo_straightS_51" vType="vehicleS_51" speedFactor="1.18" vaporized=""/>
    <tripinfo id="straightN_65" depart="44.00" departLane="edgeN_O_5" departPos="5.12" departSpeed="0.00" departDelay="0.00" arrival="189.00" arrivalLane="edgeS_I_4" arrivalPos="479.30" arrivalSpeed="18.37" duration="145.00" routeLength="1194.88" waitingTime="51.00" waitingCount="1" stopTime="0.00" timeLoss="73.98" rerouteNo="0" devices="tripinfo_straightN_65" vType="vehicleN_65" speedFactor="1.04" vaporized=""/>
    <tripinfo id="straightS_0" depart="0.00" departLane="edgeS_O_2" departPos="4.41" departSpeed="0.00" departDelay="0.00" arrival="190.00" arrivalLane="edgeN_I_1" arrivalPos="679.30" arrivalSpeed="18.99" duration="190.00" routeLength="1195.59" waitingTime="113.00" waitingCount="1" stopTime="0.00" timeLoss="125.60" rerouteNo="0" devices="tripinfo_straightS_0" vType="vehicleS_0" speedFactor="1.10" vaporized=""/>
    <tripinfo id="straightN_81" depart="54.00" departLane="edgeN_O_4" departPos="4.69" departSpeed="0.00" departDelay="0.00" arrival="190.00" arrivalLane="edgeS_I_3" arrivalPos="479.30" arrivalSpeed="18.11" duration="136.00" routeLength="1195.31" waitingTime="47.00" waitingCount="1" stopTime="0.00" timeLoss="63.75" rerouteNo="0" devices="tripinfo_straightN_81" vType="vehicleN_81" speedFactor="1.02" vaporized=""/>
    <tripinfo id="straightN_24" depart="18.00" departLane="edgeN_O_2" departPos="4.78" departSpeed="0.00" departDelay="0.00" arrival="191.00" arrivalLane="edgeS_I_2" arrivalPos="479.30" arrivalSpeed="16.51" duration="173.00" routeLength="1195.21" waitingTime="78.00" waitingCount="1" stopTime="0.00" timeLoss="95.95" rerouteNo="0" devices="tripinfo_straightN_24" vType="vehicleN_24" speedFactor="0.95" vaporized=""/>
    <tripinfo id="straightS_28" depart="20.00" departLane="edgeS_O_4" departPos="5.58" departSpeed="0.00" departDelay="1.00" arrival="191.00" arrivalLane="edgeN_I_3" arrivalPos="679.30" arrivalSpeed="20.10" duration="171.00" routeLength="1194.42" waitingTime="95.00" waitingCount="1" stopTime="0.00" timeLoss="106.53" rerouteNo="0" devices="tripinfo_straightS_28" vType="vehicleS_28" speedFactor="1.10" vaporized=""/>
    <tripinfo id="straightN_91" depart="60.00" departLane="edgeN_O_5" departPos="4.44" departSpeed="0.00" departDelay="0.00" arrival="191.00" arrivalLane="edgeS_I_4" arrivalPos="479.30" arrivalSpeed="18.13" duration="131.00" routeLength="1195.56" waitingTime="35.00" waitingCount="3" stopTime="0.00" timeLoss="58.60" rerouteNo="0" devices="tripinfo_straightN_91" vType="vehicleN_91" speedFactor="1.03" vaporized=""/>