<?xml version="1.0" encoding="UTF-8"?>

<!-- generated on 2021-10-23 05:40:17 by Eclipse SUMO sumo Version 1.10.0
<configuration xmlns:xsi="http://www.w3.org/2001/XMLSchema-instance" xsi:noNamespaceSchemaLocation="http://sumo.dlr.de/xsd/sumoConfiguration.xsd">

    <input>
        <net-file value="data4/cross.net.xml"/>
        <route-files value="data4/cross.rou.xml"/>
        <additional-files value="data4/cross.tls.xml"/>
    </input>

    <output>
        <tripinfo-output value="data4/tripinfo.xml"/>
        <tripinfo-output.write-unfinished value="true"/>
    </output>

    <time>
        <begin value="0"/>
        <step-length value="1"/>
    </time>

    <processing>
        <threads value="5"/>
        <time-to-teleport value="-1"/>
    </processing>

    <report>
        <verbose value="true"/>
        <no-warnings value="true"/>
        <no-step-log value="true"/>
    </report>

    <traci_server>
        <remote-port value="49274"/>
    </traci_server>

    <gui_only>
        <gui-settings-file value="data4/viewsettings.xml"/>
        <tracker-interval value="1"/>
    </gui_only>

</configuration>
-->

<tripinfos xmlns:xsi="http://www.w3.org/2001/XMLSchema-instance" xsi:noNamespaceSchemaLocation="http://sumo.dlr.de/xsd/tripinfo_file.xsd">
    <tripinfo id="rightS_0" depart="0.00" departLane="edgeS_O_1" departPos="4.40" departSpeed="0.00" departDelay="0.00" arrival="109.00" arrivalLane="edgeE_I_1" arrivalPos="692.10" arrivalSpeed="12.00" duration="109.00" routeLength="1373.96" waitingTime="0.00" waitingCount="0" stopTime="0.00" timeLoss="10.03" rerouteNo="0" devices="tripinfo_rightS_0" vType="vehicleS_0" speedFactor="1.00" vaporized=""/>
    <tripinfo id="rightN_5" depart="4.00" departLane="edgeN_O_1" departPos="4.52" departSpeed="0.00" departDelay="0.00" arrival="113.00" arrivalLane="edgeW_I_1" arrivalPos="592.10" arrivalSpeed="11.54" duration="109.00" routeLength="1373.84" waitingTime="0.00" waitingCount="0" stopTime="0.00" timeLoss="9.43" rerouteNo="0" devices="tripinfo_rightN_5" vType="vehicleN_5" speedFactor="0.98" vaporized=""/>
    <tripinfo id="rightN_29" depart="20.00" departLane="edgeN_O_1" departPos="4.90" departSpeed="0.00" departDelay="0.00" arrival="123.00" arrivalLane="edgeW_I_2" arrivalPos="592.10" arrivalSpeed="13.77" duration="103.00" routeLength="1373.46" waitingTime="0.00" waitingCount="0" stopTime="0.00" timeLoss="21.58" rerouteNo="0" devices="tripinfo_rightN_29" vType="vehicleN_29" speedFactor="1.20" vaporized=""/>
    <tripinfo id="rightN_25" depart="18.00" departLane="edgeN_O_1" departPos="5.50" departSpeed="0.00" departDelay="0.00" arrival="124.00" arrivalLane="edgeW_I_1" arrivalPos="592.10" arrivalSpeed="12.82" duration="106.00" routeLength="1372.86" waitingTime="0.00" waitingCount="0" stopTime="0.00" timeLoss="13.81" rerouteNo="0" devices="tripinfo_rightN_25" vType="vehicleN_25" speedFactor="1.05" vaporized=""/>
    <tripinfo id="rightN_45" depart="34.00" departLane="edgeN_O_1" departPos="5.30" departSpeed="0.00" departDelay="0.00" arrival="127.00" arrivalLane="edgeW_I_2" arrivalPos="592.10" arrivalSpeed="13.42" duration="93.00" routeLength="1373.06" waitingTime="0.00" waitingCount="0" stopTime="0.00" timeLoss="10.46" rerouteNo="0" devices="tripinfo_rightN_45" vType="vehicleN_45" speedFactor="1.18" vaporized=""/>
    <tripinfo id="rightN_14" depart="11.00" departLane="edgeN_O_1" departPos="5.51" departSpeed="0.00" departDelay="0.00" arrival="131.00" arrivalLane="edgeW_I_1" arrivalPos="592.10" arrivalSpeed="10.71" duration="120.00" routeLength="1372.85" waitingTime="0.00" waitingCount="0" stopTime="0.00" timeLoss="10.85" rerouteNo="0" devices="tripinfo_rightN_14" vType="vehicleN_14" speedFactor="0.88" vaporized=""/>
    <tripinfo id="rightN_31" depart="22.00" departLane="edgeN_O_1" departPos="5.18" departSpeed="0.00" departDelay="1.00" arrival="131.00" arrivalLane="edgeW_I_2" arrivalPos="592.10" arrivalSpeed="12.41" duration="109.00" routeLength="1373.18" waitingTime="0.00" waitingCount="0" stopTime="0.00" timeLoss="14.43" rerouteNo="0" devices="tripinfo_rightN_31" vType="vehicleN_31" speedFactor="1.03" vaporized=""/>
    <tripinfo id="rightS_41" depart="32.00" departLane="edgeS_O_1" departPos="5.54" departSpeed="0.00" departDelay="0.00" arrival="140.00" arrivalLane="edgeE_I_2" arrivalPos="692.10" arrivalSpeed="12.68" duration="108.00" routeLength="1372.82" waitingTime="0.00" waitingCount="0" stopTime="0.00" timeLoss="12.29" rerouteNo="0" devices="tripinfo_rightS_41" vType="vehicleS_41" speedFactor="1.03" vaporized=""/>
    <tripinfo id="rightS_22" depart="17.00" departLane="edgeS_O_1" departPos="4.76" departSpeed="0.00" departDelay="0.00" arrival="141.00" arrivalLane="edgeE_I_1" arrivalPos="692.10" arrivalSpeed="9.90" duration="124.00" routeLength="1373.60" waitingTime="0.00" waitingCount="0" stopTime="0.00" timeLoss="10.83" rerouteNo="0" devices="tripinfo_rightS_22" vType="vehicleS_22" speedFactor="0.87" vaporized=""/>
    <tripinfo id="rightS_37" depart="28.00" departLane="edgeS_O_1" departPos="5.58" departSpeed="0.00" departDelay="0.00" arrival="146.00" arrivalLane="edgeE_I_1" arrivalPos="692.10" arrivalSpeed="11.50" duration="118.00" routeLength="1372.78" waitingTime="0.00" waitingCount="0" stopTime="0.00" timeLoss="12.51" rerouteNo="0" devices="tripinfo_rightS_37" vType="vehicleS_37" speedFactor="0.94" vaporized=""/>
    <tripinfo id="rightS_51" depart="40.00" departLane="edgeS_O_1" departPos="5.09" departSpeed="0.00" departDelay="0.00" arrival="148.00" arrivalLane="edgeE_I_1" arrivalPos="692.10" arrivalSpeed="11.05" duration="108.00" routeLength="1373.27" waitingTime="0.00" waitingCount="0" stopTime="0.00" timeLoss="11.24" rerouteNo="0" devices="tripinfo_rightS_51" vType="vehicleS_51" speedFactor="1.02" vaporized=""/>
    <tripinfo id="rightN_47" depart="37.00" departLane="edgeN_O_1" departPos="4.59" departSpeed="0.00" departDelay="2.00" arrival="153.00" arrivalLane="edgeW_I_1" arrivalPos="592.10" arrivalSpeed="10.60" duration="116.00" routeLength="1373.77" waitingTime="0.00" waitingCount="0" stopTime="0.00" timeLoss="11.08" rerouteNo="0" devices="tripinfo_rightN_47" vType="vehicleN_47" speedFactor="0.93" vaporized=""/>
    <tripinfo id="rightN_62" depart="53.00" departLane="edgeN_O_1" departPos="4.07" departSpeed="0.00" departDelay="0.00" arrival="157.00" arrivalLane="edgeW_I_1" arrivalPos="592.10" arrivalSpeed="12.33" duration="104.00" routeLength="1374.29" waitingTime="0.00" waitingCount="0" stopTime="0.00" timeLoss="9.81" rerouteNo="0" devices="tripinfo_rightN_62" vType="vehicleN_62" speedFactor="1.03" vaporized=""/>
    <tripinfo id="leftW_30" depart="24.00" departLane="edgeW_O_5" departPos="5.54" departSpeed="0.00" departDelay="4.00" arrival="161.00" arrivalLane="edgeN_I_1" arrivalPos="776.10" arrivalSpeed="24.52" duration="137.00" routeLength="1392.08" waitingTime="59.00" waitingCount="1" stopTime="0.00" timeLoss="77.25" rerouteNo="0" devices="tripinfo_leftW_30" vType="vehicleW_30" speedFactor="1.05" vaporized=""/>
    <tripinfo id="leftE_77" depart="66.00" departLane="edgeE_O_5" departPos="4.51" departSpeed="0.00" departDelay="0.00" arrival="162.00" arrivalLane="edgeS_I_1" arrivalPos="676.10" arrivalSpeed="20.48" duration="96.00" routeLength="1393.11" waitingTime="8.00" waitingCount="1" stopTime="0.00" timeLoss="25.93" rerouteNo="0" devices="tripinfo_leftE_77" vType="vehicleE_77" speedFactor="0.90" vaporized=""/>
    <tripinfo id="leftE_84" depart="75.00" departLane="edgeE_O_5" departPos="4.77" departSpeed="0.00" departDelay="0.00" arrival="164.00" arrivalLane="edgeS_I_1" arrivalPos="676.10" arrivalSpeed="21.48" duration="89.00" routeLength="1392.85" waitingTime="1.00" waitingCount="1" stopTime="0.00" timeLoss="20.97" rerouteNo="0" devices="tripinfo_leftE_84" vType="vehicleE_84" speedFactor="0.93" vaporized=""/>
    <tripinfo id="uturnW_10" depart="8.00" departLane="edgeW_O_6" departPos="4.91" departSpeed="0.00" departDelay="0.00" arrival="165.00" arrivalLane="edgeW_I_3" arrivalPos="592.10" arrivalSpeed="13.50" duration="157.00" routeLength="1183.97" waitingTime="72.00" waitingCount="1" stopTime="0.00" timeLoss="87.86" rerouteNo="0" devices="tripinfo_uturnW_10" vType="vehicleW_10" speedFactor="1.12" vaporized=""/>
    <tripinfo id="uturnE_44" depart="33.00" departLane="edgeE_O_6" departPos="4.32" departSpeed="0.00" departDelay="0.00" arrival="166.00" arrivalLane="edgeE_I_3" arrivalPos="692.10" arrivalSpeed="13.58" duration="133.00" routeLength="1384.56" waitingTime="47.00" waitingCount="1" stopTime="0.00" timeLoss="61.41" rerouteNo="0" devices="tripinfo_uturnE_44" vType="vehicleE_44" speedFactor="1.24" vaporized=""/>
    <tripinfo id="rightW_6" depart="4.00" departLane="edgeW_O_1" departPos="4.29" departSpeed="0.00" departDelay="0.00" arrival="172.00" arrivalLane="edgeS_I_1" arrivalPos="676.10" arrivalSpeed="23.79" duration="168.00" routeLength="1274.07" waitingTime="98.00" waitingCount="1" stopTime="0.00" timeLoss="111.40" rerouteNo="0" devices="tripinfo_rightW_6" vType="vehicleW_6" speedFactor="1.01" vaporized=""/>
    <tripinfo id="uturnW_27" depart="19.00" departLane="edgeW_O_6" departPos="5.78" departSpeed="0.00" departDelay="0.00" arrival="173.00" arrivalLane="edgeW_I_1" arrivalPos="592.10" arrivalSpeed="11.66" duration="154.00" routeLength="1183.10" waitingTime="63.00" waitingCount="1" stopTime="0.00" timeLoss="79.25" rerouteNo="0" devices="tripinfo_uturnW_27" vType="vehicleW_27" speedFactor="1.03" vaporized=""/>
    <tripinfo id="rightE_34" depart="24.00" departLane="edgeE_O_1" departPos="4.53" departSpeed="0.00" departDelay="0.00" arrival="179.00" arrivalLane="edgeN_I_1" arrivalPos="776.10" arrivalSpeed="20.90" duration="155.00" routeLength="1473.83" waitingTime="71.00" waitingCount="1" stopTime="0.00" timeLoss="83.62" rerouteNo="0" devices="tripinfo_rightE_34" vType="vehicleE_34" speedFactor="0.92" vaporized=""/>
    <tripinfo id="uturnW_65" depart="55.00" departLane="edgeW_O_6" departPos="4.35" departSpeed="0.00" departDelay="0.00" arrival="179.00" arrivalLane="edgeW_I_2" arrivalPos="592.10" arrivalSpeed="11.15" duration="124.00" routeLength="1184.53" waitingTime="29.00" waitingCount="1" stopTime="0.00" timeLoss="49.65" rerouteNo="0" devices="tripinfo_uturnW_65" vType="vehicleW_65" speedFactor="1.03" vaporized=""/>
    <tripinfo id="rightE_64" depart="54.00" departLane="edgeE_O_2" departPos="5.73" departSpeed="0.00" departDelay="0.00" arrival="182.00" arrivalLane="edgeN_I_1" arrivalPos="776.10" arrivalSpeed="23.27" duration="128.00" routeLength="1475.31" waitingTime="42.00" waitingCount="1" stopTime="0.00" timeLoss="61.18" rerouteNo="0" devices="tripinfo_rightE_64" vType="vehicleE_64" speedFactor="1.00" vaporized=""/>
    <tripinfo id="rightW_15" depart="11.00" departLane="edgeW_O_1" departPos="4.95" departSpeed="0.00" departDelay="0.00" arrival="183.00" arrivalLane="edgeS_I_1" arrivalPos="676.10" arrivalSpeed="18.57" duration="172.00" routeLength="1273.41" waitingTime="85.00" waitingCount="1" stopTime="0.00" timeLoss="99.71" rerouteNo="0" devices="tripinfo_rightW_15" vType="vehicleW_15" speedFactor="0.80" vaporized=""/>
    <tripinfo id="rightW_42" depart="32.00" departLane="edgeW_O_2" departPos="5.56" departSpeed="0.00" departDelay="0.00" arrival="184.00" arrivalLane="edgeS_I_1" arrivalPos="676.10" arrivalSpeed="19.47" duration="152.00" routeLength="1272.80" waitingTime="63.00" waitingCount="1" stopTime="0.00" timeLoss="85.54" rerouteNo="0" devices="tripinfo_rightW_42" vType="vehicleW_42" speedFactor="0.87" vaporized=""/>
    <tripinfo id="rightW_57" depart="49.00" departLane="edgeW_O_1" departPos="5.50" departSpeed="0.00" departDelay="0.00" arrival="186.00" arrivalLane="edgeS_I_1" arrivalPos="676.10" arrivalSpeed="21.70" duration="137.00" routeLength="1272.86" waitingTime="56.00" waitingCount="1" stopTime="0.00" timeLoss="78.50" rerouteNo="0" devices="tripinfo_rightW_57" vType="vehicleW_57" speedFactor="0.99" vaporized=""/>
    <tripinfo id="uturnW_73" depart="63.00" departLane="edgeW_O_6" departPos="4.98" departSpeed="0.00" departDelay="0.00" arrival="187.00" arrivalLane="edgeW_I_1" arrivalPos="592.10" arrivalSpeed="11.74" duration="124.00" routeLength="1183.89" waitingTime="18.00" waitingCount="1" stopTime="0.00" timeLoss="47.51" rerouteNo="0" devices="tripinfo_uturnW_73" vType="vehicleW_73" speedFactor="1.00" vaporized=""/>
    <tripinfo id="rightW_19" depart="14.00" departLane="edgeW_O_1" departPos="4.81" departSpeed="0.00" departDelay="0.00" arrival="189.00" arrivalLane="edgeS_I_1" arrivalPos="676.10" arrivalSpeed="25.45" duration="175.00" routeLength="1276.23" waitingTime="93.00" waitingCount="3" stopTime="0.00" timeLoss="122.53" rerouteNo="0" devices="tripinfo_rightW_19" vType="vehicleW_19" speedFactor="1.11" vaporized=""/>
    <tripinfo id="leftW_78" depart="67.00" departLane="edgeW_O_5" departPos="4.88" departSpeed="0.00" departDelay="0.00" arrival="189.00" arrivalLane="edgeN_I_1" arrivalPos="776.10" arrivalSpeed="24.31" duration="122.00" routeLength="1392.74" waitingTime="31.00" waitingCount="2" stopTime="0.00" timeLoss="62.27" rerouteNo="0" devices="tripinfo_leftW_78" vType="vehicleW_78" speedFactor="1.05" vaporized=""/>
    <tripinfo id="straightE_11" depart="10.00" departLane="edgeE_O_5" departPos="5.42" departSpeed="0.00" departDelay="2.00" arrival="191.00" arrivalLane="edgeW_I_3" arrivalPos="592.10" arrivalSpeed="11.85" duration="181.00" routeLength="1294.58" waitingTime="87.00" waitingCount="1" stopTime="0.00" timeLoss="101.64" rerouteNo="0" devices="tripinfo_straightE_11" vType="vehicleE_11" speedFactor="1.02" vaporized=""/>
    <tripinfo id="straightE_16" depart="11.00" departLane="edgeE_O_3" departPos="5.76" departSpeed="0.00" departDelay="0.00" arrival="191.00" arrivalLane="edgeW_I_1" arrivalPos="592.10" arrivalSpeed="11.93" duration="180.00" routeLength="1294.24" waitingTime="85.00" waitingCount="1" stopTime="0.00" timeLoss="101.46" rerouteNo="0" devices="tripinfo_straightE_16" vType="vehicleE_16" speedFactor="1.04" vaporized=""/>
    <tripinfo id="rightW_39" depart="29.00" departLane="edgeW_O_1" departPos="5.58" departSpeed="0.00" departDelay="0.00" arrival="191.00" arrivalLane="edgeS_I_1" arrivalPos="676.10" arrivalSpeed="24.61" duration="162.00" routeLength="1275.46" waitingTime="81.00" waitingCount="3" stopTime="0.00" timeLoss="108.32" rerouteNo="0" devices="tripinfo_rightW_39" vType="vehicleW_39" speedFactor="1.07" vaporized=""/>
    <tripinfo id="straightE_9" depart="7.00" departLane="edgeE_O_5" departPos="5.33" departSpeed="0.00" departDelay="0.00" arrival="193.00" arrivalLane="edgeW_I_2" arrivalPos="592.10" arrivalSpeed="11.34" duration="186.00" routeLength="1294.67" waitingTime="92.00" waitingCount="1" stopTime="0.00" timeLoss="106.39" rerouteNo="0" devices="tripinfo_straightE_9" vType="vehicleE_9" speedFactor="1.02" vaporized=""/>
    <tripinfo id="straightE_24" depart="17.00" departLane="edgeE_O_2" departPos="4.83" departSpeed="0.00" departDelay="0.00" arrival="193.00" arrivalLane="edgeW_I_4" arrivalPos="592.10" arrivalSpeed="10.64" duration="176.00" routeLength="1295.17" waitingTime="80.00" waitingCount="1" stopTime="0.00" timeLoss="94.36" rerouteNo="0" devices="tripinfo_straightE_24" vType="vehicleE_24" speedFactor="1.00" vaporized=""/>
    <tripinfo id="straightE_33" depart="22.00" departLane="edgeE_O_3" departPos="4.47" departSpeed="0.00" departDelay="0.00" arrival="193.00" arrivalLane="edgeW_I_6" arrivalPos="592.10" arrivalSpeed="11.17" duration="171.00" routeLength="1295.53" waitingTime="78.00" waitingCount="1" stopTime="0.00" timeLoss="92.04" rerouteNo="0" devices="tripinfo_straightE_33" vType="vehicleE_33" speedFactor="1.03" vaporized=""/>
    <tripinfo id="straightE_35" depart="25.00" departLane="edgeE_O_4" departPos="4.38" departSpeed="0.00" departDelay="0.00" arrival="194.00" arrivalLane="edgeW_I_5" arrivalPos="592.10" arrivalSpeed="11.71" duration="169.00" routeLength="1295.62" waitingTime="75.00" waitingCount="1" stopTime="0.00" timeLoss="89.99" rerouteNo="0" devices="tripinfo_straightE_35" vType="vehicleE_35" speedFactor="1.03" vaporized=""/>
    <tripinfo id="leftW_76" depart="70.00" departLane="edgeW_O_6" departPos="4.52" departSpeed="0.00" departDelay="4.00" arrival="194.00" arrivalLane="edgeN_I_1" arrivalPos="776.10" arrivalSpeed="21.87" duration="124.00" routeLength="1393.10" waitingTime="24.00" waitingCount="2" stopTime="0.00" timeLoss="57.85" rerouteNo="0" devices="tripinfo_leftW_76" vType="vehicleW_76" speedFactor="0.95" vaporized=""/>
    <tripinfo id="straightE_60" depart="51.00" departLane="edgeE_O_5" departPos="4.38" departSpeed="0.00" departDelay="0.00" arrival="195.00" arrivalLane="edgeW_I_6" arrivalPos="592.10" arrivalSpeed="11.79" duration="144.00" routeLength="1295.62" waitingTime="52.00" waitingCount="1" stopTime="0.00" timeLoss="67.19" rerouteNo="0" devices="tripinfo_straightE_60" vType="vehicleE_60" speedFactor="1.07" vaporized=""/>
    <tripinfo id="uturnW_71" depart="61.00" departLane="edgeW_O_6" departPos="4.15" departSpeed="0.00" departDelay="0.00" arrival="195.00" arrivalLane="edgeW_I_1" arrivalPos="592.10" arrivalSpeed="9.59" duration="134.00" routeLength="1184.73" waitingTime="20.00" waitingCount="1" stopTime="0.00" timeLoss="42.52" rerouteNo="0" devices="tripinfo_uturnW_71" vType="vehicleW_71" speedFactor="0.84" vaporized=""/>
    <tripinfo id="straightE_81" depart="71.00" departLane="edgeE_O_5" departPos="4.13" departSpeed="0.00" departDelay="1.00" arrival="195.00" arrivalLane="edgeW_I_2" arrivalPos="592.10" arrivalSpeed="11.66" duration="124.00" routeLength="1295.87" waitingTime="25.00" waitingCount="2" stopTime="0.00" timeLoss="45.08" rerouteNo="0" devices="tripinfo_straightE_81" vType="vehicleE_81" speedFactor="1.03" vaporized=""/>
    <tripinfo id="leftW_103" depart="95.00" departLane="edgeW_O_6" departPos="5.69" departSpeed="0.00" departDelay="0.00" arrival="196.00" arrivalLane="edgeN_I_1" arrivalPos="776.10" arrivalSpeed="24.79" duration="101.00" routeLength="1391.93" waitingTime="5.00" waitingCount="1" stopTime="0.00" timeLoss="41.54" rerouteNo="0" devices="tripinfo_leftW_103" vType="vehicleW_103" speedFactor="1.06" vaporized=""/>
    <tripinfo id="straightE_105" depart="98.00" departLane="edgeE_O_3" departPos="4.89" departSpeed="0.00" departDelay="0.00" arrival="196.00" arrivalLane="edgeW_I_5" arrivalPos="592.10" arrivalSpeed="14.15" duration="98.00" routeLength="1295.11" waitingTime="10.00" waitingCount="1" stopTime="0.00" timeLoss="30.78" rerouteNo="0" devices="tripinfo_straightE_105" vType="vehicleE_105" speedFactor="1.22" vaporized=""/>
    <tripinfo id="leftW_1" depart="0.00" departLane="edgeW_O_5" departPos="4.17" departSpeed="0.00" departDelay="0.00" arrival="198.00" arrivalLane="edgeN_I_1" arrivalPos="776.10" arrivalSpeed="24.25" duration="198.00" routeLength="1396.41" waitingTime="118.00" waitingCount="3" stopTime="0.00" timeLoss="138.27" rerouteNo="0" devices="tripinfo_leftW_1" vType="vehicleW_1" speedFactor="1.06" vaporized=""/>
    <tripinfo id="straightE_106" depart="102.00" departLane="edgeE_O_4" departPos="5.34" departSpeed="0.00" departDelay="0.00" arrival="198.00" arrivalLane="edgeW_I_2" arrivalPos="592.10" arrivalSpeed="12.25" duration="96.00" routeLength="1294.66" waitingTime="0.00" waitingCount="0" stopTime="0.00" timeLoss="20.69" rerouteNo="0" devices="tripinfo_straightE_106" vType="vehicleE_106" speedFactor="1.08" vaporized=""/>
    <tripinfo id="straightW_12" depart="10.00" departLane="edgeW_O_4" departPos="5.69" departSpeed="0.00" departDelay="1.00" arrival="199.00" arrivalLane="edgeE_I_3" arrivalPos="692.10" arrivalSpeed="12.01" duration="189.00" routeLength="1294.31" waitingTime="92.00" waitingCount="1" stopTime="0.00" timeLoss="109.27" rerouteNo="0" devices="tripinfo_straightW_12" vType="vehicleW_12" speedFactor="1.07" vaporized=""/>
    <tripinfo id="rightW_49" depart="37.00" departLane="edgeW_O_1" departPos="5.09" departSpeed="0.00" departDelay="0.00" arrival="199.00" arrivalLane="edgeS_I_1" arrivalPos="676.10" arrivalSpeed="20.86" duration="162.00" routeLength="1273.27" waitingTime="73.00" waitingCount="3" stopTime="0.00" timeLoss="98.14" rerouteNo="0" devices="tripinfo_rightW_49" vType="vehicleW_49" speedFactor="0.90" vaporized=""/>
    <tripinfo id="uturnE_50" depart="39.00" departLane="edgeE_O_6" departPos="4.42" departSpeed="0.00" departDelay="0.00" arrival="199.00" arrivalLane="edgeE_I_1" arrivalPos="692.10" arrivalSpeed="9.35" duration="160.00" routeLength="1384.46" waitingTime="29.00" waitingCount="1" stopTime="0.00" timeLoss="48.27" rerouteNo="0" devices="tripinfo_uturnE_50" vType="vehicleE_50" speedFactor="0.80" vaporized=""/>
    <tripinfo id="straightW_4" depart="3.00" departLane="edgeW_O_3" departPos="5.48" departSpeed="0.00" departDelay="0.00" arrival="200.00" arrivalLane="edgeE_I_2" arrivalPos="692.10" arrivalSpeed="11.89" duration="197.00" routeLength="1294.51" waitingTime="99.00" waitingCount="1" stopTime="0.00" timeLoss="112.93" rerouteNo="0" devices="tripinfo_straightW_4" vType="vehicleW_4" speedFactor="1.01" vaporized=""/>
    <tripinfo id="leftW_13" depart="10.00" departLane="edgeW_O_5" departPos="5.29" departSpeed="0.00" departDelay="0.00" arrival="200.00" arrivalLane="edgeN_I_1" arrivalPos="776.10" arrivalSpeed="23.99" duration="190.00" routeLength="1395.29" waitingTime="109.00" waitingCount="3" stopTime="0.00" timeLoss="129.81" rerouteNo="0" devices="tripinfo_leftW_13" vType="vehicleW_13" speedFactor="1.05" vaporized=""/>
    <tripinfo id="straightW_18" depart="14.00" departLane="edgeW_O_3" departPos="5.73" departSpeed="0.00" departDelay="1.00" arrival="200.00" arrivalLane="edgeE_I_4" arrivalPos="692.10" arrivalSpeed="12.57" duration="186.00" routeLength="1294.27" waitingTime="92.00" waitingCount="1" stopTime="0.00" timeLoss="108.70" rerouteNo="0" devices="tripinfo_straightW_18" vType="vehicleW_18" speedFactor="1.10" vaporized=""/>
    <tripinfo id="straightW_3" depart="2.00" departLane="edgeW_O_2" departPos="4.17" departSpeed="0.00" departDelay="0.00" arrival="201.00" arrivalLane="edgeE_I_1" arrivalPos="692.10" arrivalSpeed="11.59" duration="199.00" routeLength="1295.83" waitingTime="100.00" waitingCount="1" stopTime="0.00" timeLoss="114.83" rerouteNo="0" devices="tripinfo_straightW_3" vType="vehicleW_3" speedFactor="1.01" vaporized=""/>
    <tripinfo id="straightE_40" depart="30.00" departLane="edgeE_O_5" departPos="4.32" departSpeed="0.00" departDelay="0.00" arrival="201.00" arrivalLane="edgeW_I_3" arrivalPos="592.10" arrivalSpeed="10.70" duration="171.00" routeLength="1295.68" waitingTime="65.00" waitingCount="2" stopTime="0.00" timeLoss="84.32" rerouteNo="0" devices="tripinfo_straightE_40" vType="vehicleE_40" speedFactor="0.94" vaporized=""/>
    <tripinfo id="leftE_110" depart="108.00" departLane="edgeE_O_5" departPos="4.06" departSpeed="0.00" departDelay="0.00" arrival="201.00" arrivalLane="edgeS_I_1" arrivalPos="676.10" arrivalSpeed="22.29" duration="93.00" routeLength="1393.56" waitingTime="10.00" waitingCount="1" stopTime="0.00" timeLoss="29.43" rerouteNo="0" devices="tripinfo_leftE_110" vType="vehicleE_110" speedFactor="1.00" vaporized=""/>
    <tripinfo id="straightE_28" depart="19.00" departLane="edgeE_O_4" departPos="5.73" departSpeed="0.00" departDelay="0.00" arrival="202.00" arrivalLane="edgeW_I_1" arrivalPos="592.10" arrivalSpeed="9.61" duration="183.00" routeLength="1294.26" waitingTime="75.00" waitingCount="1" stopTime="0.00" timeLoss="90.59" rerouteNo="0" devices="tripinfo_straightE_28" vType="vehicleE_28" speedFactor="0.88" vaporized=""/>
    <tripinfo id="straightE_79" depart="68.00" departLane="edgeE_O_5" departPos="4.54" departSpeed="0.00" departDelay="1.00" arrival="203.00" arrivalLane="edgeW_I_2" arrivalPos="592.10" arrivalSpeed="10.36" duration="135.00" routeLength="1295.46" waitingTime="27.00" waitingCount="2" stopTime="0.00" timeLoss="50.36" rerouteNo="0" devices="tripinfo_straightE_79" vType="vehicleE_79" speedFactor="0.96" vaporized=""/>
    <tripinfo id="straightE_89" depart="80.00" departLane="edgeE_O_2" departPos="5.11" departSpeed="0.00" departDelay="0.00" arrival="203.00" arrivalLane="edgeW_I_4" arrivalPos="592.10" arrivalSpeed="11.43" duration="123.00" routeLength="1294.89" waitingTime="21.00" waitingCount="1" stopTime="0.00" timeLoss="38.12" rerouteNo="0" devices="tripinfo_straightE_89" vType="vehicleE_89" speedFactor="0.96" vaporized=""/>
    <tripinfo id="straightE_36" depart="26.00" departLane="edgeE_O_3" departPos="5.48" departSpeed="0.00" departDelay="0.00" arrival="205.00" arrivalLane="edgeW_I_1" arrivalPos="592.10" arrivalSpeed="9.56" duration="179.00" routeLength="1294.51" waitingTime="61.00" waitingCount="1" stopTime="0.00" timeLoss="82.13" rerouteNo="0" devices="tripinfo_straightE_36" vType="vehicleE_36" speedFactor="0.84" vaporized=""/>
    <tripinfo id="straightW_8" depart="7.00" departLane="edgeW_O_4" departPos="4.48" departSpeed="0.00" departDelay="1.00" arrival="206.00" arrivalLane="edgeE_I_1" arrivalPos="692.10" arrivalSpeed="11.37" duration="199.00" routeLength="1295.52" waitingTime="93.00" waitingCount="1" stopTime="0.00" timeLoss="109.40" rerouteNo="0" devices="tripinfo_straightW_8" vType="vehicleW_8" speedFactor="0.95" vaporized=""/>
    <tripinfo id="uturnW_75" depart="67.00" departLane="edgeW_O_6" departPos="5.49" departSpeed="0.00" departDelay="2.00" arrival="207.00" arrivalLane="edgeW_I_2" arrivalPos="592.10" arrivalSpeed="11.01" duration="140.00" routeLength="1183.39" waitingTime="25.00" waitingCount="2" stopTime="0.00" timeLoss="57.22" rerouteNo="0" devices="tripinfo_uturnW_75" vType="vehicleW_75" speedFactor="0.93" vaporized=""/>
    <tripinfo id="straightW_2" depart="3.00" departLane="edgeW_O_5" departPos="5.56" departSpeed="0.00" departDelay="2.00" arrival="208.00" arrivalLane="edgeE_I_1" arrivalPos="692.10" arrivalSpeed="9.84" duration="205.00" routeLength="1294.44" waitingTime="96.00" waitingCount="1" stopTime="0.00" timeLoss="111.54" rerouteNo="0" devices="tripinfo_straightW_2" vType="vehicleW_2" speedFactor="0.90" vaporized=""/>
    <tripinfo id="straightW_58" depart="50.00" departLane="edgeW_O_3" departPos="5.43" departSpeed="0.00" departDelay="0.00" arrival="209.00" arrivalLane="edgeE_I_2" arrivalPos="692.10" arrivalSpeed="12.52" duration="159.00" routeLength="1294.57" waitingTime="58.00" waitingCount="1" stopTime="0.00" timeLoss="77.22" rerouteNo="0" devices="tripinfo_straightW_58" vType="vehicleW_58" speedFactor="1.04" vaporized=""/>
    <tripinfo id="straightW_43" depart="35.00" departLane="edgeW_O_2" departPos="4.71" departSpeed="0.00" departDelay="2.00" arrival="211.00" arrivalLane="edgeE_I_4" arrivalPos="692.10" arrivalSpeed="12.04" duration="176.00" routeLength="1295.29" waitingTime="71.00" waitingCount="1" stopTime="0.00" timeLoss="89.73" rerouteNo="0" devices="tripinfo_straightW_43" vType="vehicleW_43" speedFactor="0.98" vaporized=""/>
    <tripinfo id="straightW_59" depart="52.00" departLane="edgeW_O_3" departPos="4.15" departSpeed="0.00" departDelay="1.00" arrival="211.00" arrivalLane="edgeE_I_5" arrivalPos="692.10" arrivalSpeed="12.96" duration="159.00" routeLength="1295.85" waitingTime="54.00" waitingCount="3" stopTime="0.00" timeLoss="81.60" rerouteNo="0" devices="tripinfo_straightW_59" vType="vehicleW_59" speedFactor="1.10" vaporized=""/>
    <tripinfo id="straightW_7" depart="5.00" departLane="edgeW_O_4" departPos="5.77" departSpeed="0.00" departDelay="0.00" arrival="212.00" arrivalLane="edgeE_I_1" arrivalPos="692.10" arrivalSpeed="10.65" duration="207.00" routeLength="1294.23" waitingTime="94.00" waitingCount="1" stopTime="0.00" timeLoss="109.55" rerouteNo="0" devices="tripinfo_straightW_7" vType="vehicleW_7" speedFactor="0.87" vaporized=""/>
    <tripinfo id="straightW_32" depart="22.00" departLane="edgeW_O_2" departPos="5.35" departSpeed="0.00" departDelay="0.00" arrival="212.00" arrivalLane="edgeE_I_2" arrivalPos="692.10" arrivalSpeed="11.27" duration="190.00" routeLength="1294.65" waitingTime="75.00" waitingCount="3" stopTime="0.00" timeLoss="98.39" rerouteNo="0" devices="tripinfo_straightW_32" vType="vehicleW_32" speedFactor="0.93" vaporized=""/>
    <tripinfo id="straightW_66" depart="57.00" departLane="edgeW_O_2" departPos="5.18" departSpeed="0.00" departDelay="0.00" arrival="212.00" arrivalLane="edgeE_I_3" arrivalPos="692.10" arrivalSpeed="12.63" duration="155.00" routeLength="1294.82" waitingTime="53.00" waitingCount="1" stopTime="0.00" timeLoss="72.56" rerouteNo="0" devices="tripinfo_straightW_66" vType="vehicleW_66" speedFactor="1.03" vaporized=""/>
    <tripinfo id="straightW_20" depart="15.00" departLane="edgeW_O_2" departPos="4.41" departSpeed="0.00" departDelay="0.00" arrival="215.00" arrivalLane="edgeE_I_2" arrivalPos="692.10" arrivalSpeed="10.41" duration="200.00" routeLength="1295.59" waitingTime="89.00" waitingCount="1" stopTime="0.00" timeLoss="105.67" rerouteNo="0" devices="tripinfo_straightW_20" vType="vehicleW_20" speedFactor="0.90" vaporized=""/>
    <tripinfo id="straightW_91" depart="82.00" departLane="edgeW_O_2" departPos="5.78" departSpeed="0.00" departDelay="0.00" arrival="216.00" arrivalLane="edgeE_I_4" arrivalPos="692.10" arrivalSpeed="12.83" duration="134.00" routeLength="1294.22" waitingTime="32.00" waitingCount="1" stopTime="0.00" timeLoss="54.06" rerouteNo="0" devices="tripinfo_straightW_91" vType="vehicleW_91" speedFactor="1.07" vaporized=""/>
    <tripinfo id="straightW_21" depart="16.00" departLane="edgeW_O_5" departPos="5.58" departSpeed="0.00" departDelay="0.00" arrival="217.00" arrivalLane="edgeE_I_1" arrivalPos="692.10" arrivalSpeed="9.70" duration="201.00" routeLength="1294.42" waitingTime="84.00" waitingCount="1" stopTime="0.00" timeLoss="101.43" rerouteNo="0" devices="tripinfo_straightW_21" vType="vehicleW_21" speedFactor="0.85" vaporized=""/>