<?xml version="1.0" encoding="UTF-8"?>

<!-- generated on 2021-10-23 04:06:19 by Eclipse SUMO sumo Version 1.10.0
<configuration xmlns:xsi="http://www.w3.org/2001/XMLSchema-instance" xsi:noNamespaceSchemaLocation="http://sumo.dlr.de/xsd/sumoConfiguration.xsd">

    <input>
        <net-file value="data4/cross.net.xml"/>
        <route-files value="data4/cross.rou.xml"/>
        <additional-files value="data4/cross.tls.xml"/>
    </input>

    <output>
        <tripinfo-output value="data4/tripinfo.xml"/>
        <tripinfo-output.write-unfinished value="true"/>
    </output>

    <time>
        <begin value="0"/>
        <step-length value="1"/>
    </time>

    <processing>
        <threads value="5"/>
        <time-to-teleport value="-1"/>
    </processing>

    <report>
        <verbose value="true"/>
        <no-warnings value="true"/>
        <no-step-log value="true"/>
    </report>

    <traci_server>
        <remote-port value="54650"/>
    </traci_server>

    <gui_only>
        <gui-settings-file value="data4/viewsettings.xml"/>
        <tracker-interval value="1"/>
    </gui_only>

</configuration>
-->

<tripinfos xmlns:xsi="http://www.w3.org/2001/XMLSchema-instance" xsi:noNamespaceSchemaLocation="http://sumo.dlr.de/xsd/tripinfo_file.xsd">
    <tripinfo id="straightS_0" depart="0.00" departLane="edgeS_O_2" departPos="4.39" departSpeed="0.00" departDelay="0.00" arrival="40.00" arrivalLane="edgeN_I_2" arrivalPos="379.30" arrivalSpeed="22.60" duration="40.00" routeLength="795.61" waitingTime="0.00" waitingCount="0" stopTime="0.00" timeLoss="5.16" rerouteNo="0" devices="tripinfo_straightS_0" vType="vehicleS_0" speedFactor="1.01" vaporized=""/>
    <tripinfo id="straightS_5" depart="4.00" departLane="edgeS_O_2" departPos="4.51" departSpeed="0.00" departDelay="0.00" arrival="49.00" arrivalLane="edgeN_I_2" arrivalPos="379.30" arrivalSpeed="20.16" duration="45.00" routeLength="795.49" waitingTime="0.00" waitingCount="0" stopTime="0.00" timeLoss="6.16" rerouteNo="0" devices="tripinfo_straightS_5" vType="vehicleS_5" speedFactor="0.90" vaporized=""/>
    <tripinfo id="straightS_15" depart="9.00" departLane="edgeS_O_4" departPos="4.32" departSpeed="0.00" departDelay="0.00" arrival="50.00" arrivalLane="edgeN_I_4" arrivalPos="379.30" arrivalSpeed="20.59" duration="41.00" routeLength="795.68" waitingTime="0.00" waitingCount="0" stopTime="0.00" timeLoss="4.08" rerouteNo="0" devices="tripinfo_straightS_15" vType="vehicleS_15" speedFactor="0.94" vaporized=""/>
    <tripinfo id="straightS_7" depart="5.00" departLane="edgeS_O_3" departPos="4.29" departSpeed="0.00" departDelay="0.00" arrival="51.00" arrivalLane="edgeN_I_3" arrivalPos="379.30" arrivalSpeed="19.66" duration="46.00" routeLength="795.71" waitingTime="0.00" waitingCount="0" stopTime="0.00" timeLoss="6.13" rerouteNo="0" devices="tripinfo_straightS_7" vType="vehicleS_7" speedFactor="0.89" vaporized=""/>
    <tripinfo id="rightN_4" depart="2.00" departLane="edgeN_O_1" departPos="5.04" departSpeed="0.00" departDelay="0.00" arrival="66.00" arrivalLane="edgeW_I_1" arrivalPos="876.10" arrivalSpeed="23.20" duration="64.00" routeLength="1260.52" waitingTime="0.00" waitingCount="0" stopTime="0.00" timeLoss="9.93" rerouteNo="0" devices="tripinfo_rightN_4" vType="vehicleN_4" speedFactor="1.05" vaporized=""/>
    <tripinfo id="leftE_32" depart="18.00" departLane="edgeE_O_5" departPos="5.48" departSpeed="0.00" departDelay="0.00" arrival="68.00" arrivalLane="edgeS_I_5" arrivalPos="379.30" arrivalSpeed="22.65" duration="50.00" routeLength="691.16" waitingTime="0.00" waitingCount="0" stopTime="0.00" timeLoss="5.54" rerouteNo="0" devices="tripinfo_leftE_32" vType="vehicleE_32" speedFactor="0.98" vaporized=""/>
    <tripinfo id="leftS_8" depart="6.00" departLane="edgeS_O_6" departPos="4.55" departSpeed="0.00" departDelay="0.00" arrival="75.00" arrivalLane="edgeW_I_3" arrivalPos="876.10" arrivalSpeed="21.59" duration="69.00" routeLength="1291.97" waitingTime="0.00" waitingCount="0" stopTime="0.00" timeLoss="10.69" rerouteNo="0" devices="tripinfo_leftS_8" vType="vehicleS_8" speedFactor="1.01" vaporized=""/>
    <tripinfo id="straightW_2" depart="1.00" departLane="edgeW_O_4" departPos="5.39" departSpeed="0.00" departDelay="0.00" arrival="90.00" arrivalLane="edgeE_I_2" arrivalPos="276.10" arrivalSpeed="25.26" duration="89.00" routeLength="1194.61" waitingTime="0.00" waitingCount="0" stopTime="0.00" timeLoss="7.46" rerouteNo="0" devices="tripinfo_straightW_2" vType="vehicleW_2" speedFactor="1.13" vaporized=""/>
    <tripinfo id="rightE_6" depart="4.00" departLane="edgeE_O_1" departPos="4.29" departSpeed="0.00" departDelay="0.00" arrival="92.00" arrivalLane="edgeN_I_1" arrivalPos="379.30" arrivalSpeed="22.86" duration="88.00" routeLength="661.27" waitingTime="37.00" waitingCount="1" stopTime="0.00" timeLoss="47.29" rerouteNo="0" devices="tripinfo_rightE_6" vType="vehicleE_6" speedFactor="1.02" vaporized=""/>
    <tripinfo id="leftE_65" depart="39.00" departLane="edgeE_O_5" departPos="4.61" departSpeed="0.00" departDelay="0.00" arrival="93.00" arrivalLane="edgeS_I_5" arrivalPos="379.30" arrivalSpeed="20.31" duration="54.00" routeLength="692.04" waitingTime="0.00" waitingCount="0" stopTime="0.00" timeLoss="6.88" rerouteNo="0" devices="tripinfo_leftE_65" vType="vehicleE_65" speedFactor="0.93" vaporized=""/>
    <tripinfo id="rightE_35" depart="19.00" departLane="edgeE_O_1" departPos="5.61" departSpeed="0.00" departDelay="0.00" arrival="96.00" arrivalLane="edgeN_I_1" arrivalPos="379.30" arrivalSpeed="21.67" duration="77.00" routeLength="659.95" waitingTime="22.00" waitingCount="1" stopTime="0.00" timeLoss="34.09" rerouteNo="0" devices="tripinfo_rightE_35" vType="vehicleE_35" speedFactor="0.97" vaporized=""/>
    <tripinfo id="rightE_42" depart="22.00" departLane="edgeE_O_1" departPos="5.19" departSpeed="0.00" departDelay="0.00" arrival="98.00" arrivalLane="edgeN_I_1" arrivalPos="379.30" arrivalSpeed="25.08" duration="76.00" routeLength="660.37" waitingTime="20.00" waitingCount="1" stopTime="0.00" timeLoss="40.53" rerouteNo="0" devices="tripinfo_rightE_42" vType="vehicleE_42" speedFactor="1.17" vaporized=""/>
    <tripinfo id="leftE_70" depart="42.00" departLane="edgeE_O_5" departPos="4.05" departSpeed="0.00" departDelay="0.00" arrival="100.00" arrivalLane="edgeS_I_5" arrivalPos="379.30" arrivalSpeed="21.40" duration="58.00" routeLength="692.60" waitingTime="1.00" waitingCount="1" stopTime="0.00" timeLoss="12.52" rerouteNo="0" devices="tripinfo_leftE_70" vType="vehicleE_70" speedFactor="0.95" vaporized=""/>
    <tripinfo id="rightE_47" depart="26.00" departLane="edgeE_O_1" departPos="4.61" departSpeed="0.00" departDelay="0.00" arrival="101.00" arrivalLane="edgeN_I_1" arrivalPos="379.30" arrivalSpeed="20.06" duration="75.00" routeLength="660.95" waitingTime="18.00" waitingCount="1" stopTime="0.00" timeLoss="29.82" rerouteNo="0" devices="tripinfo_rightE_47" vType="vehicleE_47" speedFactor="0.93" vaporized=""/>
    <tripinfo id="rightE_79" depart="46.00" departLane="edgeE_O_1" departPos="4.93" departSpeed="0.00" departDelay="0.00" arrival="103.00" arrivalLane="edgeN_I_1" arrivalPos="379.30" arrivalSpeed="25.74" duration="57.00" routeLength="660.63" waitingTime="3.00" waitingCount="1" stopTime="0.00" timeLoss="21.49" rerouteNo="0" devices="tripinfo_rightE_79" vType="vehicleE_79" speedFactor="1.17" vaporized=""/>
    <tripinfo id="rightE_91" depart="50.00" departLane="edgeE_O_1" departPos="4.21" departSpeed="0.00" departDelay="0.00" arrival="107.00" arrivalLane="edgeN_I_1" arrivalPos="379.30" arrivalSpeed="21.02" duration="57.00" routeLength="661.35" waitingTime="0.00" waitingCount="0" stopTime="0.00" timeLoss="11.19" rerouteNo="0" devices="tripinfo_rightE_91" vType="vehicleE_91" speedFactor="0.92" vaporized=""/>
    <tripinfo id="straightE_1" depart="0.00" departLane="edgeE_O_4" departPos="4.41" departSpeed="0.00" departDelay="0.00" arrival="111.00" arrivalLane="edgeW_I_1" arrivalPos="876.10" arrivalSpeed="24.75" duration="111.00" routeLength="1195.59" waitingTime="44.00" waitingCount="1" stopTime="0.00" timeLoss="54.54" rerouteNo="0" devices="tripinfo_straightE_1" vType="vehicleE_1" speedFactor="1.17" vaporized=""/>
    <tripinfo id="straightE_10" depart="6.00" departLane="edgeE_O_3" departPos="4.46" departSpeed="0.00" departDelay="0.00" arrival="114.00" arrivalLane="edgeW_I_3" arrivalPos="876.10" arrivalSpeed="23.61" duration="108.00" routeLength="1195.54" waitingTime="37.00" waitingCount="1" stopTime="0.00" timeLoss="46.99" rerouteNo="0" devices="tripinfo_straightE_10" vType="vehicleE_10" speedFactor="1.08" vaporized=""/>
    <tripinfo id="straightW_28" depart="16.00" departLane="edgeW_O_3" departPos="4.38" departSpeed="0.00" departDelay="0.00" arrival="114.00" arrivalLane="edgeE_I_2" arrivalPos="276.10" arrivalSpeed="22.40" duration="98.00" routeLength="1195.62" waitingTime="0.00" waitingCount="0" stopTime="0.00" timeLoss="8.10" rerouteNo="0" devices="tripinfo_straightW_28" vType="vehicleW_28" speedFactor="1.03" vaporized=""/>
    <tripinfo id="straightE_73" depart="43.00" departLane="edgeE_O_2" departPos="5.05" departSpeed="0.00" departDelay="0.00" arrival="115.00" arrivalLane="edgeW_I_5" arrivalPos="876.10" arrivalSpeed="26.54" duration="72.00" routeLength="1194.95" waitingTime="5.00" waitingCount="1" stopTime="0.00" timeLoss="19.05" rerouteNo="0" devices="tripinfo_straightE_73" vType="vehicleE_73" speedFactor="1.24" vaporized=""/>
    <tripinfo id="straightW_39" depart="22.00" departLane="edgeW_O_3" departPos="4.37" departSpeed="0.00" departDelay="1.00" arrival="116.00" arrivalLane="edgeE_I_2" arrivalPos="276.10" arrivalSpeed="24.08" duration="94.00" routeLength="1195.63" waitingTime="0.00" waitingCount="0" stopTime="0.00" timeLoss="10.92" rerouteNo="0" devices="tripinfo_straightW_39" vType="vehicleW_39" speedFactor="1.11" vaporized=""/>
    <tripinfo id="straightE_3" depart="1.00" departLane="edgeE_O_3" departPos="4.38" departSpeed="0.00" departDelay="0.00" arrival="117.00" arrivalLane="edgeW_I_1" arrivalPos="876.10" arrivalSpeed="21.28" duration="116.00" routeLength="1195.62" waitingTime="38.00" waitingCount="1" stopTime="0.00" timeLoss="50.50" rerouteNo="0" devices="tripinfo_straightE_3" vType="vehicleE_3" speedFactor="1.01" vaporized=""/>
    <tripinfo id="uturnE_125" depart="70.00" departLane="edgeE_O_5" departPos="5.47" departSpeed="0.00" departDelay="0.00" arrival="120.00" arrivalLane="edgeE_I_5" arrivalPos="276.10" arrivalSpeed="22.42" duration="50.00" routeLength="551.41" waitingTime="2.00" waitingCount="1" stopTime="0.00" timeLoss="12.75" rerouteNo="0" devices="tripinfo_uturnE_125" vType="vehicleE_125" speedFactor="1.04" vaporized=""/>
    <tripinfo id="straightE_29" depart="16.00" departLane="edgeE_O_4" departPos="5.59" departSpeed="0.00" departDelay="0.00" arrival="121.00" arrivalLane="edgeW_I_3" arrivalPos="876.10" arrivalSpeed="20.98" duration="105.00" routeLength="1194.40" waitingTime="25.00" waitingCount="1" stopTime="0.00" timeLoss="36.73" rerouteNo="0" devices="tripinfo_straightE_29" vType="vehicleE_29" speedFactor="0.97" vaporized=""/>
    <tripinfo id="straightE_25" depart="15.00" departLane="edgeE_O_2" departPos="5.12" departSpeed="0.00" departDelay="1.00" arrival="122.00" arrivalLane="edgeW_I_4" arrivalPos="876.10" arrivalSpeed="21.80" duration="107.00" routeLength="1194.88" waitingTime="25.00" waitingCount="1" stopTime="0.00" timeLoss="40.61" rerouteNo="0" devices="tripinfo_straightE_25" vType="vehicleE_25" speedFactor="0.99" vaporized=""/>
    <tripinfo id="straightW_46" depart="26.00" departLane="edgeW_O_2" departPos="4.20" departSpeed="0.00" departDelay="0.00" arrival="123.00" arrivalLane="edgeE_I_3" arrivalPos="276.10" arrivalSpeed="23.52" duration="97.00" routeLength="1195.80" waitingTime="0.00" waitingCount="0" stopTime="0.00" timeLoss="11.69" rerouteNo="0" devices="tripinfo_straightW_46" vType="vehicleW_46" speedFactor="1.08" vaporized=""/>
    <tripinfo id="straightE_81" depart="47.00" departLane="edgeE_O_3" departPos="4.57" departSpeed="0.00" departDelay="0.00" arrival="123.00" arrivalLane="edgeW_I_5" arrivalPos="876.10" arrivalSpeed="22.28" duration="76.00" routeLength="1195.43" waitingTime="0.00" waitingCount="0" stopTime="0.00" timeLoss="13.44" rerouteNo="0" devices="tripinfo_straightE_81" vType="vehicleE_81" speedFactor="1.06" vaporized=""/>
    <tripinfo id="straightE_17" depart="10.00" departLane="edgeE_O_2" departPos="5.69" departSpeed="0.00" departDelay="0.00" arrival="124.00" arrivalLane="edgeW_I_2" arrivalPos="876.10" arrivalSpeed="18.32" duration="114.00" routeLength="1194.31" waitingTime="27.00" waitingCount="1" stopTime="0.00" timeLoss="39.30" rerouteNo="0" devices="tripinfo_straightE_17" vType="vehicleE_17" speedFactor="0.88" vaporized=""/>
    <tripinfo id="straightE_50" depart="28.00" departLane="edgeE_O_4" departPos="5.26" departSpeed="0.00" departDelay="0.00" arrival="124.00" arrivalLane="edgeW_I_4" arrivalPos="876.10" arrivalSpeed="19.73" duration="96.00" routeLength="1194.74" waitingTime="15.00" waitingCount="1" stopTime="0.00" timeLoss="25.17" rerouteNo="0" devices="tripinfo_straightE_50" vType="vehicleE_50" speedFactor="0.93" vaporized=""/>
    <tripinfo id="straightE_14" depart="8.00" departLane="edgeE_O_4" departPos="4.20" departSpeed="0.00" departDelay="0.00" arrival="125.00" arrivalLane="edgeW_I_1" arrivalPos="876.10" arrivalSpeed="20.23" duration="117.00" routeLength="1195.80" waitingTime="31.00" waitingCount="1" stopTime="0.00" timeLoss="47.03" rerouteNo="0" devices="tripinfo_straightE_14" vType="vehicleE_14" speedFactor="0.95" vaporized=""/>
    <tripinfo id="straightE_45" depart="24.00" departLane="edgeE_O_2" departPos="5.38" departSpeed="0.00" departDelay="0.00" arrival="125.00" arrivalLane="edgeW_I_3" arrivalPos="876.10" arrivalSpeed="22.04" duration="101.00" routeLength="1194.62" waitingTime="21.00" waitingCount="1" stopTime="0.00" timeLoss="36.98" rerouteNo="0" devices="tripinfo_straightE_45" vType="vehicleE_45" speedFactor="1.03" vaporized=""/>
    <tripinfo id="straightE_20" depart="13.00" departLane="edgeE_O_2" departPos="4.65" departSpeed="0.00" departDelay="1.00" arrival="127.00" arrivalLane="edgeW_I_1" arrivalPos="876.10" arrivalSpeed="18.59" duration="114.00" routeLength="1195.35" waitingTime="28.00" waitingCount="1" stopTime="0.00" timeLoss="38.43" rerouteNo="0" devices="tripinfo_straightE_20" vType="vehicleE_20" speedFactor="0.87" vaporized=""/>
    <tripinfo id="rightW_27" depart="15.00" departLane="edgeW_O_1" departPos="5.47" departSpeed="0.00" departDelay="0.00" arrival="128.00" arrivalLane="edgeS_I_1" arrivalPos="379.30" arrivalSpeed="21.74" duration="113.00" routeLength="1260.09" waitingTime="0.00" waitingCount="0" stopTime="0.00" timeLoss="15.68" rerouteNo="0" devices="tripinfo_rightW_27" vType="vehicleW_27" speedFactor="0.97" vaporized=""/>
    <tripinfo id="straightE_84" depart="50.00" departLane="edgeE_O_3" departPos="4.70" departSpeed="0.00" departDelay="2.00" arrival="128.00" arrivalLane="edgeW_I_3" arrivalPos="876.10" arrivalSpeed="21.30" duration="78.00" routeLength="1195.30" waitingTime="0.00" waitingCount="0" stopTime="0.00" timeLoss="10.26" rerouteNo="0" devices="tripinfo_straightE_84" vType="vehicleE_84" speedFactor="0.97" vaporized=""/>
    <tripinfo id="straightW_9" depart="6.00" departLane="edgeW_O_2" departPos="5.52" departSpeed="0.00" departDelay="0.00" arrival="129.00" arrivalLane="edgeE_I_2" arrivalPos="276.10" arrivalSpeed="17.96" duration="123.00" routeLength="1194.48" waitingTime="0.00" waitingCount="0" stopTime="0.00" timeLoss="11.54" rerouteNo="0" devices="tripinfo_straightW_9" vType="vehicleW_9" speedFactor="0.83" vaporized=""/>
    <tripinfo id="straightW_34" depart="19.00" departLane="edgeW_O_3" departPos="4.42" departSpeed="0.00" departDelay="0.00" arrival="130.00" arrivalLane="edgeE_I_4" arrivalPos="276.10" arrivalSpeed="20.87" duration="111.00" routeLength="1195.58" waitingTime="0.00" waitingCount="0" stopTime="0.00" timeLoss="13.84" rerouteNo="0" devices="tripinfo_straightW_34" vType="vehicleW_34" speedFactor="0.95" vaporized=""/>
    <tripinfo id="rightW_37" depart="20.00" departLane="edgeW_O_1" departPos="5.21" departSpeed="0.00" departDelay="0.00" arrival="130.00" arrivalLane="edgeS_I_1" arrivalPos="379.30" arrivalSpeed="23.99" duration="110.00" routeLength="1260.35" waitingTime="0.00" waitingCount="0" stopTime="0.00" timeLoss="22.22" rerouteNo="0" devices="tripinfo_rightW_37" vType="vehicleW_37" speedFactor="1.09" vaporized=""/>
    <tripinfo id="straightW_24" depart="14.00" departLane="edgeW_O_4" departPos="4.75" departSpeed="0.00" departDelay="0.00" arrival="131.00" arrivalLane="edgeE_I_3" arrivalPos="276.10" arrivalSpeed="18.87" duration="117.00" routeLength="1195.25" waitingTime="0.00" waitingCount="0" stopTime="0.00" timeLoss="10.07" rerouteNo="0" devices="tripinfo_straightW_24" vType="vehicleW_24" speedFactor="0.87" vaporized=""/>
    <tripinfo id="rightE_132" depart="76.00" departLane="edgeE_O_1" departPos="4.04" departSpeed="0.00" departDelay="0.00" arrival="131.00" arrivalLane="edgeN_I_1" arrivalPos="379.30" arrivalSpeed="20.69" duration="55.00" routeLength="661.52" waitingTime="0.00" waitingCount="0" stopTime="0.00" timeLoss="7.79" rerouteNo="0" devices="tripinfo_rightE_132" vType="vehicleE_132" speedFactor="0.89" vaporized=""/>
    <tripinfo id="straightW_12" depart="7.00" departLane="edgeW_O_4" departPos="5.17" departSpeed="0.00" departDelay="0.00" arrival="132.00" arrivalLane="edgeE_I_2" arrivalPos="276.10" arrivalSpeed="17.34" duration="125.00" routeLength="1194.83" waitingTime="0.00" waitingCount="0" stopTime="0.00" timeLoss="13.57" rerouteNo="0" devices="tripinfo_straightW_12" vType="vehicleW_12" speedFactor="0.83" vaporized=""/>
    <tripinfo id="straightW_18" depart="11.00" departLane="edgeW_O_2" departPos="4.13" departSpeed="0.00" departDelay="0.00" arrival="132.00" arrivalLane="edgeE_I_3" arrivalPos="276.10" arrivalSpeed="20.24" duration="121.00" routeLength="1195.87" waitingTime="0.00" waitingCount="0" stopTime="0.00" timeLoss="35.21" rerouteNo="0" devices="tripinfo_straightW_18" vType="vehicleW_18" speedFactor="1.07" vaporized=""/>
    <tripinfo id="rightW_49" depart="28.00" departLane="edgeW_O_1" departPos="4.46" departSpeed="0.00" departDelay="0.00" arrival="132.00" arrivalLane="edgeS_I_1" arrivalPos="379.30" arrivalSpeed="24.08" duration="104.00" routeLength="1261.10" waitingTime="0.00" waitingCount="0" stopTime="0.00" timeLoss="15.30" rerouteNo="0" devices="tripinfo_rightW_49" vType="vehicleW_49" speedFactor="1.07" vaporized=""/>
    <tripinfo id="straightE_62" depart="38.00" departLane="edgeE_O_2" departPos="4.56" departSpeed="0.00" departDelay="0.00" arrival="132.00" arrivalLane="edgeW_I_2" arrivalPos="876.10" arrivalSpeed="18.92" duration="94.00" routeLength="1195.44" waitingTime="5.00" waitingCount="1" stopTime="0.00" timeLoss="19.61" rerouteNo="0" devices="tripinfo_straightE_62" vType="vehicleE_62" speedFactor="0.89" vaporized=""/>
    <tripinfo id="straightE_88" depart="49.00" departLane="edgeE_O_2" departPos="4.34" departSpeed="0.00" departDelay="0.00" arrival="133.00" arrivalLane="edgeW_I_3" arrivalPos="876.10" arrivalSpeed="20.83" duration="84.00" routeLength="1195.66" waitingTime="0.00" waitingCount="0" stopTime="0.00" timeLoss="14.50" rerouteNo="0" devices="tripinfo_straightE_88" vType="vehicleE_88" speedFactor="0.95" vaporized=""/>
    <tripinfo id="straightE_93" depart="53.00" departLane="edgeE_O_3" departPos="4.78" departSpeed="0.00" departDelay="2.00" arrival="133.00" arrivalLane="edgeW_I_5" arrivalPos="876.10" arrivalSpeed="21.89" duration="80.00" routeLength="1195.22" waitingTime="0.00" waitingCount="0" stopTime="0.00" timeLoss="12.26" rerouteNo="0" devices="tripinfo_straightE_93" vType="vehicleE_93" speedFactor="0.98" vaporized=""/>
    <tripinfo id="straightE_44" depart="23.00" departLane="edgeE_O_3" departPos="4.19" departSpeed="0.00" departDelay="0.00" arrival="134.00" arrivalLane="edgeW_I_1" arrivalPos="876.10" arrivalSpeed="17.16" duration="111.00" routeLength="1195.81" waitingTime="14.00" waitingCount="1" stopTime="0.00" timeLoss="27.89" rerouteNo="0" devices="tripinfo_straightE_44" vType="vehicleE_44" speedFactor="0.79" vaporized=""/>
    <tripinfo id="straightE_58" depart="34.00" departLane="edgeE_O_3" departPos="5.54" departSpeed="0.00" departDelay="0.00" arrival="134.00" arrivalLane="edgeW_I_2" arrivalPos="876.10" arrivalSpeed="22.96" duration="100.00" routeLength="1194.46" waitingTime="14.00" waitingCount="1" stopTime="0.00" timeLoss="36.47" rerouteNo="0" devices="tripinfo_straightE_58" vType="vehicleE_58" speedFactor="1.04" vaporized=""/>
    <tripinfo id="straightE_96" depart="52.00" departLane="edgeE_O_4" departPos="4.51" departSpeed="0.00" departDelay="0.00" arrival="134.00" arrivalLane="edgeW_I_4" arrivalPos="876.10" arrivalSpeed="19.89" duration="82.00" routeLength="1195.49" waitingTime="0.00" waitingCount="0" stopTime="0.00" timeLoss="8.85" rerouteNo="0" devices="tripinfo_straightE_96" vType="vehicleE_96" speedFactor="0.90" vaporized=""/>
    <tripinfo id="straightE_98" depart="56.00" departLane="edgeE_O_3" departPos="4.54" departSpeed="0.00" departDelay="2.00" arrival="135.00" arrivalLane="edgeW_I_3" arrivalPos="876.10" arrivalSpeed="21.55" duration="79.00" routeLength="1195.46" waitingTime="0.00" waitingCount="0" stopTime="0.00" timeLoss="11.12" rerouteNo="0" devices="tripinfo_straightE_98" vType="vehicleE_98" speedFactor="0.97" vaporized=""/>
    <tripinfo id="straightE_119" depart="68.00" departLane="edgeE_O_4" departPos="5.09" departSpeed="0.00" departDelay="0.00" arrival="135.00" arrivalLane="edgeW_I_5" arrivalPos="876.10" arrivalSpeed="24.13" duration="67.00" routeLength="1194.90" waitingTime="0.00" waitingCount="0" stopTime="0.00" timeLoss="5.87" rerouteNo="0" devices="tripinfo_straightE_119" vType="vehicleE_119" speedFactor="1.08" vaporized=""/>
    <tripinfo id="straightE_77" depart="45.00" departLane="edgeE_O_2" departPos="4.59" departSpeed="0.00" departDelay="0.00" arrival="136.00" arrivalLane="edgeW_I_1" arrivalPos="876.10" arrivalSpeed="17.75" duration="91.00" routeLength="1195.40" waitingTime="0.00" waitingCount="0" stopTime="0.00" timeLoss="12.46" rerouteNo="0" devices="tripinfo_straightE_77" vType="vehicleE_77" speedFactor="0.84" vaporized=""/>
    <tripinfo id="straightE_103" depart="59.00" departLane="edgeE_O_3" departPos="4.19" departSpeed="0.00" departDelay="2.00" arrival="136.00" arrivalLane="edgeW_I_4" arrivalPos="876.10" arrivalSpeed="22.87" duration="77.00" routeLength="1195.81" waitingTime="0.00" waitingCount="0" stopTime="0.00" timeLoss="12.67" rerouteNo="0" devices="tripinfo_straightE_103" vType="vehicleE_103" speedFactor="1.03" vaporized=""/>
    <tripinfo id="straightW_52" depart="29.00" departLane="edgeW_O_4" departPos="4.58" departSpeed="0.00" departDelay="0.00" arrival="137.00" arrivalLane="edgeE_I_2" arrivalPos="276.10" arrivalSpeed="20.83" duration="108.00" routeLength="1195.42" waitingTime="0.00" waitingCount="0" stopTime="0.00" timeLoss="10.07" rerouteNo="0" devices="tripinfo_straightW_52" vType="vehicleW_52" speedFactor="0.94" vaporized=""/>
    <tripinfo id="straightE_112" depart="62.00" departLane="edgeE_O_2" departPos="5.01" departSpeed="0.00" departDelay="0.00" arrival="137.00" arrivalLane="edgeW_I_3" arrivalPos="876.10" arrivalSpeed="21.73" duration="75.00" routeLength="1194.99" waitingTime="0.00" waitingCount="0" stopTime="0.00" timeLoss="9.06" rerouteNo="0" devices="tripinfo_straightE_112" vType="vehicleE_112" speedFactor="1.00" vaporized=""/>
    <tripinfo id="straightE_114" depart="63.00" departLane="edgeE_O_3" departPos="5.47" departSpeed="0.00" departDelay="0.00" arrival="137.00" arrivalLane="edgeW_I_5" arrivalPos="876.10" arrivalSpeed="20.85" duration="74.00" routeLength="1194.53" waitingTime="0.00" waitingCount="0" stopTime="0.00" timeLoss="6.03" rerouteNo="0" devices="tripinfo_straightE_114" vType="vehicleE_114" speedFactor="0.97" vaporized=""/>
    <tripinfo id="straightW_56" depart="32.00" departLane="edgeW_O_2" departPos="5.07" departSpeed="0.00" departDelay="0.00" arrival="139.00" arrivalLane="edgeE_I_2" arrivalPos="276.10" arrivalSpeed="21.41" duration="107.00" routeLength="1194.93" waitingTime="0.00" waitingCount="0" stopTime="0.00" timeLoss="12.22" rerouteNo="0" devices="tripinfo_straightW_56" vType="vehicleW_56" speedFactor="0.98" vaporized=""/>
    <tripinfo id="straightW_54" depart="32.00" departLane="edgeW_O_4" departPos="4.01" departSpeed="0.00" departDelay="1.00" arrival="140.00" arrivalLane="edgeE_I_3" arrivalPos="276.10" arrivalSpeed="20.75" duration="108.00" routeLength="1195.99" waitingTime="0.00" waitingCount="0" stopTime="0.00" timeLoss="8.99" rerouteNo="0" devices="tripinfo_straightW_54" vType="vehicleW_54" speedFactor="0.94" vaporized=""/>
    <tripinfo id="straightE_75" depart="44.00" departLane="edgeE_O_3" departPos="5.43" departSpeed="0.00" departDelay="0.00" arrival="142.00" arrivalLane="edgeW_I_1" arrivalPos="876.10" arrivalSpeed="15.72" duration="98.00" routeLength="1194.57" waitingTime="0.00" waitingCount="0" stopTime="0.00" timeLoss="9.77" rerouteNo="0" devices="tripinfo_straightE_75" vType="vehicleE_75" speedFactor="0.74" vaporized=""/>
    <tripinfo id="straightE_122" depart="71.00" departLane="edgeE_O_4" departPos="4.86" departSpeed="0.00" departDelay="2.00" arrival="142.00" arrivalLane="edgeW_I_2" arrivalPos="876.10" arrivalSpeed="22.60" duration="71.00" routeLength="1195.14" waitingTime="0.00" waitingCount="0" stopTime="0.00" timeLoss="5.99" rerouteNo="0" devices="tripinfo_straightE_122" vType="vehicleE_122" speedFactor="1.02" vaporized=""/>
    <tripinfo id="rightE_163" depart="99.00" departLane="edgeE_O_1" departPos="4.43" departSpeed="0.00" departDelay="0.00" arrival="143.00" arrivalLane="edgeN_I_1" arrivalPos="379.30" arrivalSpeed="25.90" duration="44.00" routeLength="661.13" waitingTime="0.00" waitingCount="0" stopTime="0.00" timeLoss="7.77" rerouteNo="0" devices="tripinfo_rightE_163" vType="vehicleE_163" speedFactor="1.17" vaporized=""/>
    <tripinfo id="straightW_67" depart="40.00" departLane="edgeW_O_3" departPos="5.17" departSpeed="0.00" departDelay="0.00" arrival="144.00" arrivalLane="edgeE_I_2" arrivalPos="276.10" arrivalSpeed="21.84" duration="104.00" routeLength="1194.83" waitingTime="0.00" waitingCount="0" stopTime="0.00" timeLoss="9.42" rerouteNo="0" devices="tripinfo_straightW_67" vType="vehicleW_67" speedFactor="0.98" vaporized=""/>
    <tripinfo id="straightE_115" depart="65.00" departLane="edgeE_O_3" departPos="5.02" departSpeed="0.00" departDelay="0.00" arrival="146.00" arrivalLane="edgeW_I_1" arrivalPos="876.10" arrivalSpeed="19.97" duration="81.00" routeLength="1194.98" waitingTime="1.00" waitingCount="1" stopTime="0.00" timeLoss="7.38" rerouteNo="0" devices="tripinfo_straightE_115" vType="vehicleE_115" speedFactor="0.90" vaporized=""/>
    <tripinfo id="straightE_133" depart="77.00" departLane="edgeE_O_4" departPos="4.05" departSpeed="0.00" departDelay="0.00" arrival="146.00" arrivalLane="edgeW_I_2" arrivalPos="876.10" arrivalSpeed="22.22" duration="69.00" routeLength="1195.95" waitingTime="0.00" waitingCount="0" stopTime="0.00" timeLoss="5.84" rerouteNo="0" devices="tripinfo_straightE_133" vType="vehicleE_133" speedFactor="1.05" vaporized=""/>
    <tripinfo id="leftW_22" depart="13.00" departLane="edgeW_O_5" departPos="4.07" departSpeed="0.00" departDelay="0.00" arrival="148.00" arrivalLane="edgeN_I_5" arrivalPos="379.30" arrivalSpeed="20.25" duration="135.00" routeLength="1292.58" waitingTime="14.00" waitingCount="1" stopTime="0.00" timeLoss="28.63" rerouteNo="0" devices="tripinfo_leftW_22" vType="vehicleW_22" speedFactor="0.90" vaporized=""/>
    <tripinfo id="straightW_87" depart="49.00" departLane="edgeW_O_4" departPos="4.48" departSpeed="0.00" departDelay="0.00" arrival="149.00" arrivalLane="edgeE_I_2" arrivalPos="276.10" arrivalSpeed="21.92" duration="100.00" routeLength="1195.51" waitingTime="0.00" waitingCount="0" stopTime="0.00" timeLoss="8.41" rerouteNo="0" devices="tripinfo_straightW_87" vType="vehicleW_87" speedFactor="1.00" vaporized=""/>
    <tripinfo id="straightE_136" depart="78.00" departLane="edgeE_O_3" departPos="5.16" departSpeed="0.00" departDelay="0.00" arrival="153.00" arrivalLane="edgeW_I_1" arrivalPos="876.10" arrivalSpeed="20.08" duration="75.00" routeLength="1194.84" waitingTime="0.00" waitingCount="0" stopTime="0.00" timeLoss="6.52" rerouteNo="0" devices="tripinfo_straightE_136" vType="vehicleE_136" speedFactor="0.96" vaporized=""/>
    <tripinfo id="straightW_64" depart="41.00" departLane="edgeW_O_4" departPos="5.56" departSpeed="0.00" departDelay="2.00" arrival="155.00" arrivalLane="edgeE_I_2" arrivalPos="276.10" arrivalSpeed="19.35" duration="114.00" routeLength="1194.44" waitingTime="0.00" waitingCount="0" stopTime="0.00" timeLoss="11.70" rerouteNo="0" devices="tripinfo_straightW_64" vType="vehicleW_64" speedFactor="0.90" vaporized=""/>
    <tripinfo id="straightE_155" depart="93.00" departLane="edgeE_O_2" departPos="5.13" departSpeed="0.00" departDelay="0.00" arrival="158.00" arrivalLane="edgeW_I_5" arrivalPos="876.10" arrivalSpeed="25.02" duration="65.00" routeLength="1194.87" waitingTime="0.00" waitingCount="0" stopTime="0.00" timeLoss="6.63" rerouteNo="0" devices="tripinfo_straightE_155" vType="vehicleE_155" speedFactor="1.14" vaporized=""/>
    <tripinfo id="straightE_148" depart="86.00" departLane="edgeE_O_4" departPos="4.75" departSpeed="0.00" departDelay="0.00" arrival="159.00" arrivalLane="edgeW_I_2" arrivalPos="876.10" arrivalSpeed="20.55" duration="73.00" routeLength="1195.25" waitingTime="0.00" waitingCount="0" stopTime="0.00" timeLoss="5.43" rerouteNo="0" devices="tripinfo_straightE_148" vType="vehicleE_148" speedFactor="0.97" vaporized=""/>