<?xml version="1.0" encoding="UTF-8"?>

<!-- generated on 2021-10-23 04:06:19 by Eclipse SUMO sumo Version 1.10.0
<configuration xmlns:xsi="http://www.w3.org/2001/XMLSchema-instance" xsi:noNamespaceSchemaLocation="http://sumo.dlr.de/xsd/sumoConfiguration.xsd">

    <input>
        <net-file value="data3/cross.net.xml"/>
        <route-files value="data3/cross.rou.xml"/>
        <additional-files value="data3/cross.tls.xml"/>
    </input>

    <output>
        <tripinfo-output value="data3/tripinfo.xml"/>
        <tripinfo-output.write-unfinished value="true"/>
    </output>

    <time>
        <begin value="0"/>
        <step-length value="1"/>
    </time>

    <processing>
        <threads value="5"/>
        <time-to-teleport value="-1"/>
    </processing>

    <report>
        <verbose value="true"/>
        <no-warnings value="true"/>
        <no-step-log value="true"/>
    </report>

    <traci_server>
        <remote-port value="54634"/>
    </traci_server>

    <gui_only>
        <gui-settings-file value="data3/viewsettings.xml"/>
        <tracker-interval value="1"/>
    </gui_only>

</configuration>
-->

<tripinfos xmlns:xsi="http://www.w3.org/2001/XMLSchema-instance" xsi:noNamespaceSchemaLocation="http://sumo.dlr.de/xsd/tripinfo_file.xsd">
    <tripinfo id="straightN_3" depart="2.00" departLane="edgeN_O_1" departPos="4.67" departSpeed="0.00" departDelay="0.00" arrival="59.00" arrivalLane="edgeS_I_1" arrivalPos="782.50" arrivalSpeed="24.72" duration="57.00" routeLength="1195.33" waitingTime="0.00" waitingCount="0" stopTime="0.00" timeLoss="7.12" rerouteNo="0" devices="tripinfo_straightN_3" vType="vehicleN_3" speedFactor="1.05" vaporized=""/>
    <tripinfo id="straightE_1" depart="0.00" departLane="edgeE_O_4" departPos="4.46" departSpeed="0.00" departDelay="0.00" arrival="64.00" arrivalLane="edgeW_I_3" arrivalPos="292.10" arrivalSpeed="25.60" duration="64.00" routeLength="595.54" waitingTime="29.00" waitingCount="1" stopTime="0.00" timeLoss="41.99" rerouteNo="0" devices="tripinfo_straightE_1" vType="vehicleE_1" speedFactor="1.15" vaporized=""/>
    <tripinfo id="straightW_11" depart="10.00" departLane="edgeW_O_3" departPos="5.65" departSpeed="0.00" departDelay="0.00" arrival="65.00" arrivalLane="edgeE_I_2" arrivalPos="292.10" arrivalSpeed="22.01" duration="55.00" routeLength="594.35" waitingTime="17.00" waitingCount="1" stopTime="0.00" timeLoss="30.71" rerouteNo="0" devices="tripinfo_straightW_11" vType="vehicleW_11" speedFactor="1.03" vaporized=""/>
    <tripinfo id="straightE_5" depart="7.00" departLane="edgeE_O_1" departPos="5.19" departSpeed="0.00" departDelay="2.00" arrival="66.00" arrivalLane="edgeW_I_3" arrivalPos="292.10" arrivalSpeed="21.22" duration="59.00" routeLength="594.81" waitingTime="20.00" waitingCount="1" stopTime="0.00" timeLoss="32.37" rerouteNo="0" devices="tripinfo_straightE_5" vType="vehicleE_5" speedFactor="0.96" vaporized=""/>
    <tripinfo id="straightE_8" depart="8.00" departLane="edgeE_O_4" departPos="5.32" departSpeed="0.00" departDelay="0.00" arrival="66.00" arrivalLane="edgeW_I_4" arrivalPos="292.10" arrivalSpeed="23.91" duration="58.00" routeLength="594.68" waitingTime="22.00" waitingCount="1" stopTime="0.00" timeLoss="35.20" rerouteNo="0" devices="tripinfo_straightE_8" vType="vehicleE_8" speedFactor="1.10" vaporized=""/>
    <tripinfo id="straightE_2" depart="1.00" departLane="edgeE_O_3" departPos="5.24" departSpeed="0.00" departDelay="0.00" arrival="67.00" arrivalLane="edgeW_I_2" arrivalPos="292.10" arrivalSpeed="22.26" duration="66.00" routeLength="594.76" waitingTime="24.00" waitingCount="1" stopTime="0.00" timeLoss="42.47" rerouteNo="0" devices="tripinfo_straightE_2" vType="vehicleE_2" speedFactor="1.08" vaporized=""/>
    <tripinfo id="straightW_7" depart="7.00" departLane="edgeW_O_3" departPos="4.51" departSpeed="0.00" departDelay="0.00" arrival="67.00" arrivalLane="edgeE_I_1" arrivalPos="292.10" arrivalSpeed="22.49" duration="60.00" routeLength="595.49" waitingTime="21.00" waitingCount="1" stopTime="0.00" timeLoss="35.74" rerouteNo="0" devices="tripinfo_straightW_7" vType="vehicleW_7" speedFactor="1.04" vaporized=""/>
    <tripinfo id="straightW_15" depart="13.00" departLane="edgeW_O_1" departPos="5.02" departSpeed="0.00" departDelay="0.00" arrival="67.00" arrivalLane="edgeE_I_3" arrivalPos="292.10" arrivalSpeed="21.89" duration="54.00" routeLength="594.98" waitingTime="11.00" waitingCount="1" stopTime="0.00" timeLoss="29.42" rerouteNo="0" devices="tripinfo_straightW_15" vType="vehicleW_15" speedFactor="1.03" vaporized=""/>
    <tripinfo id="straightE_4" depart="4.00" departLane="edgeE_O_1" departPos="4.55" departSpeed="0.00" departDelay="0.00" arrival="68.00" arrivalLane="edgeW_I_1" arrivalPos="292.10" arrivalSpeed="21.54" duration="64.00" routeLength="595.45" waitingTime="21.00" waitingCount="1" stopTime="0.00" timeLoss="38.39" rerouteNo="0" devices="tripinfo_straightE_4" vType="vehicleE_4" speedFactor="1.01" vaporized=""/>
    <tripinfo id="straightE_10" depart="10.00" departLane="edgeE_O_4" departPos="5.40" departSpeed="0.00" departDelay="1.00" arrival="68.00" arrivalLane="edgeW_I_3" arrivalPos="292.10" arrivalSpeed="21.82" duration="58.00" routeLength="594.60" waitingTime="12.00" waitingCount="1" stopTime="0.00" timeLoss="32.55" rerouteNo="0" devices="tripinfo_straightE_10" vType="vehicleE_10" speedFactor="0.99" vaporized=""/>
    <tripinfo id="straightW_30" depart="21.00" departLane="edgeW_O_3" departPos="4.47" departSpeed="0.00" departDelay="0.00" arrival="68.00" arrivalLane="edgeE_I_2" arrivalPos="292.10" arrivalSpeed="22.20" duration="47.00" routeLength="595.53" waitingTime="0.00" waitingCount="0" stopTime="0.00" timeLoss="22.38" rerouteNo="0" devices="tripinfo_straightW_30" vType="vehicleW_30" speedFactor="1.03" vaporized=""/>
    <tripinfo id="straightE_28" depart="20.00" departLane="edgeE_O_2" departPos="5.51" departSpeed="0.00" departDelay="0.00" arrival="69.00" arrivalLane="edgeW_I_2" arrivalPos="292.10" arrivalSpeed="21.54" duration="49.00" routeLength="594.49" waitingTime="5.00" waitingCount="2" stopTime="0.00" timeLoss="22.58" rerouteNo="0" devices="tripinfo_straightE_28" vType="vehicleE_28" speedFactor="0.96" vaporized=""/>
    <tripinfo id="straightN_13" depart="12.00" departLane="edgeN_O_1" departPos="5.48" departSpeed="0.00" departDelay="0.00" arrival="70.00" arrivalLane="edgeS_I_1" arrivalPos="782.50" arrivalSpeed="23.06" duration="58.00" routeLength="1194.52" waitingTime="0.00" waitingCount="0" stopTime="0.00" timeLoss="5.63" rerouteNo="0" devices="tripinfo_straightN_13" vType="vehicleN_13" speedFactor="1.00" vaporized=""/>
    <tripinfo id="straightE_37" depart="26.00" departLane="edgeE_O_3" departPos="5.55" departSpeed="0.00" departDelay="0.00" arrival="70.00" arrivalLane="edgeW_I_3" arrivalPos="292.10" arrivalSpeed="25.74" duration="44.00" routeLength="594.45" waitingTime="2.00" waitingCount="1" stopTime="0.00" timeLoss="22.09" rerouteNo="0" devices="tripinfo_straightE_37" vType="vehicleE_37" speedFactor="1.18" vaporized=""/>
    <tripinfo id="straightW_43" depart="33.00" departLane="edgeW_O_1" departPos="4.50" departSpeed="0.00" departDelay="0.00" arrival="70.00" arrivalLane="edgeE_I_2" arrivalPos="292.10" arrivalSpeed="22.38" duration="37.00" routeLength="595.50" waitingTime="0.00" waitingCount="0" stopTime="0.00" timeLoss="11.74" rerouteNo="0" devices="tripinfo_straightW_43" vType="vehicleW_43" speedFactor="1.02" vaporized=""/>
    <tripinfo id="straightW_20" depart="18.00" departLane="edgeW_O_1" departPos="4.78" departSpeed="0.00" departDelay="0.00" arrival="71.00" arrivalLane="edgeE_I_4" arrivalPos="292.10" arrivalSpeed="17.31" duration="53.00" routeLength="595.22" waitingTime="8.00" waitingCount="1" stopTime="0.00" timeLoss="22.31" rerouteNo="0" devices="tripinfo_straightW_20" vType="vehicleW_20" speedFactor="0.84" vaporized=""/>
    <tripinfo id="straightE_21" depart="18.00" departLane="edgeE_O_4" departPos="5.41" departSpeed="0.00" departDelay="0.00" arrival="71.00" arrivalLane="edgeW_I_4" arrivalPos="292.10" arrivalSpeed="18.90" duration="53.00" routeLength="594.59" waitingTime="9.00" waitingCount="1" stopTime="0.00" timeLoss="24.19" rerouteNo="0" devices="tripinfo_straightE_21" vType="vehicleE_21" speedFactor="0.89" vaporized=""/>
    <tripinfo id="straightE_25" depart="21.00" departLane="edgeE_O_4" departPos="5.62" departSpeed="0.00" departDelay="2.00" arrival="72.00" arrivalLane="edgeW_I_4" arrivalPos="292.10" arrivalSpeed="19.87" duration="51.00" routeLength="594.38" waitingTime="7.00" waitingCount="1" stopTime="0.00" timeLoss="24.39" rerouteNo="0" devices="tripinfo_straightE_25" vType="vehicleE_25" speedFactor="0.95" vaporized=""/>
    <tripinfo id="straightW_34" depart="24.00" departLane="edgeW_O_2" departPos="5.31" departSpeed="0.00" departDelay="0.00" arrival="72.00" arrivalLane="edgeE_I_3" arrivalPos="292.10" arrivalSpeed="20.33" duration="48.00" routeLength="594.69" waitingTime="1.00" waitingCount="1" stopTime="0.00" timeLoss="23.88" rerouteNo="0" devices="tripinfo_straightW_34" vType="vehicleW_34" speedFactor="1.04" vaporized=""/>
    <tripinfo id="straightE_32" depart="23.00" departLane="edgeE_O_4" departPos="4.18" departSpeed="0.00" departDelay="1.00" arrival="73.00" arrivalLane="edgeW_I_3" arrivalPos="292.10" arrivalSpeed="21.91" duration="50.00" routeLength="595.82" waitingTime="3.00" waitingCount="2" stopTime="0.00" timeLoss="28.95" rerouteNo="0" devices="tripinfo_straightE_32" vType="vehicleE_32" speedFactor="1.20" vaporized=""/>
    <tripinfo id="straightW_41" depart="30.00" departLane="edgeW_O_2" departPos="4.71" departSpeed="0.00" departDelay="0.00" arrival="74.00" arrivalLane="edgeE_I_3" arrivalPos="292.10" arrivalSpeed="22.10" duration="44.00" routeLength="595.29" waitingTime="0.00" waitingCount="0" stopTime="0.00" timeLoss="22.10" rerouteNo="0" devices="tripinfo_straightW_41" vType="vehicleW_41" speedFactor="1.17" vaporized=""/>
    <tripinfo id="straightE_44" depart="33.00" departLane="edgeE_O_1" departPos="5.29" departSpeed="0.00" departDelay="0.00" arrival="74.00" arrivalLane="edgeW_I_4" arrivalPos="292.10" arrivalSpeed="22.43" duration="41.00" routeLength="594.71" waitingTime="0.00" waitingCount="0" stopTime="0.00" timeLoss="15.58" rerouteNo="0" devices="tripinfo_straightE_44" vType="vehicleE_44" speedFactor="1.02" vaporized=""/>
    <tripinfo id="straightW_48" depart="37.00" departLane="edgeW_O_2" departPos="5.08" departSpeed="0.00" departDelay="0.00" arrival="75.00" arrivalLane="edgeE_I_2" arrivalPos="292.10" arrivalSpeed="18.18" duration="38.00" routeLength="594.92" waitingTime="0.00" waitingCount="0" stopTime="0.00" timeLoss="7.76" rerouteNo="0" devices="tripinfo_straightW_48" vType="vehicleW_48" speedFactor="0.84" vaporized=""/>
    <tripinfo id="straightE_49" depart="39.00" departLane="edgeE_O_2" departPos="4.46" departSpeed="0.00" departDelay="0.00" arrival="75.00" arrivalLane="edgeW_I_4" arrivalPos="292.10" arrivalSpeed="24.49" duration="36.00" routeLength="595.54" waitingTime="0.00" waitingCount="0" stopTime="0.00" timeLoss="14.32" rerouteNo="0" devices="tripinfo_straightE_49" vType="vehicleE_49" speedFactor="1.18" vaporized=""/>
    <tripinfo id="straightW_47" depart="36.00" departLane="edgeW_O_3" departPos="4.70" departSpeed="0.00" departDelay="0.00" arrival="76.00" arrivalLane="edgeE_I_3" arrivalPos="292.10" arrivalSpeed="23.81" duration="40.00" routeLength="595.30" waitingTime="0.00" waitingCount="0" stopTime="0.00" timeLoss="16.31" rerouteNo="0" devices="tripinfo_straightW_47" vType="vehicleW_47" speedFactor="1.09" vaporized=""/>
    <tripinfo id="straightW_45" depart="34.00" departLane="edgeW_O_2" departPos="4.07" departSpeed="0.00" departDelay="0.00" arrival="77.00" arrivalLane="edgeE_I_3" arrivalPos="292.10" arrivalSpeed="23.25" duration="43.00" routeLength="595.93" waitingTime="2.00" waitingCount="1" stopTime="0.00" timeLoss="18.79" rerouteNo="0" devices="tripinfo_straightW_45" vType="vehicleW_45" speedFactor="1.04" vaporized=""/>
    <tripinfo id="straightE_54" depart="47.00" departLane="edgeE_O_4" departPos="5.23" departSpeed="0.00" departDelay="0.00" arrival="77.00" arrivalLane="edgeW_I_4" arrivalPos="292.10" arrivalSpeed="26.00" duration="30.00" routeLength="594.77" waitingTime="0.00" waitingCount="0" stopTime="0.00" timeLoss="9.41" rerouteNo="0" devices="tripinfo_straightE_54" vType="vehicleE_54" speedFactor="1.22" vaporized=""/>
    <tripinfo id="straightW_18" depart="17.00" departLane="edgeW_O_4" departPos="5.51" departSpeed="0.00" departDelay="0.00" arrival="79.00" arrivalLane="edgeE_I_3" arrivalPos="292.10" arrivalSpeed="26.80" duration="62.00" routeLength="594.49" waitingTime="15.00" waitingCount="2" stopTime="0.00" timeLoss="41.14" rerouteNo="0" devices="tripinfo_straightW_18" vType="vehicleW_18" speedFactor="1.20" vaporized=""/>
    <tripinfo id="straightW_31" depart="24.00" departLane="edgeW_O_3" departPos="5.01" departSpeed="0.00" departDelay="2.00" arrival="81.00" arrivalLane="edgeE_I_3" arrivalPos="292.10" arrivalSpeed="24.48" duration="57.00" routeLength="594.99" waitingTime="5.00" waitingCount="1" stopTime="0.00" timeLoss="34.11" rerouteNo="0" devices="tripinfo_straightW_31" vType="vehicleW_31" speedFactor="1.11" vaporized=""/>
    <tripinfo id="straightW_53" depart="47.00" departLane="edgeW_O_1" departPos="4.55" departSpeed="0.00" departDelay="0.00" arrival="82.00" arrivalLane="edgeE_I_2" arrivalPos="292.10" arrivalSpeed="22.64" duration="35.00" routeLength="595.45" waitingTime="0.00" waitingCount="0" stopTime="0.00" timeLoss="9.85" rerouteNo="0" devices="tripinfo_straightW_53" vType="vehicleW_53" speedFactor="1.02" vaporized=""/>
    <tripinfo id="uturnW_9" depart="9.00" departLane="edgeW_O_4" departPos="4.92" departSpeed="0.00" departDelay="0.00" arrival="84.00" arrivalLane="edgeW_I_4" arrivalPos="292.10" arrivalSpeed="23.66" duration="75.00" routeLength="583.96" waitingTime="30.00" waitingCount="2" stopTime="0.00" timeLoss="49.88" rerouteNo="0" devices="tripinfo_uturnW_9" vType="vehicleW_9" speedFactor="1.07" vaporized=""/>
    <tripinfo id="straightW_24" depart="20.00" departLane="edgeW_O_4" departPos="4.42" departSpeed="0.00" departDelay="1.00" arrival="86.00" arrivalLane="edgeE_I_3" arrivalPos="292.10" arrivalSpeed="20.23" duration="66.00" routeLength="595.58" waitingTime="13.00" waitingCount="3" stopTime="0.00" timeLoss="38.84" rerouteNo="0" devices="tripinfo_straightW_24" vType="vehicleW_24" speedFactor="0.93" vaporized=""/>
    <tripinfo id="straightW_35" depart="25.00" departLane="edgeW_O_4" departPos="5.59" departSpeed="0.00" departDelay="0.00" arrival="88.00" arrivalLane="edgeE_I_4" arrivalPos="292.10" arrivalSpeed="18.90" duration="63.00" routeLength="594.41" waitingTime="7.00" waitingCount="2" stopTime="0.00" timeLoss="33.68" rerouteNo="0" devices="tripinfo_straightW_35" vType="vehicleW_35" speedFactor="0.88" vaporized=""/>
    <tripinfo id="leftW_12" depart="12.00" departLane="edgeW_O_4" departPos="5.28" departSpeed="0.00" departDelay="1.00" arrival="89.00" arrivalLane="edgeN_I_1" arrivalPos="382.50" arrivalSpeed="22.22" duration="77.00" routeLength="692.90" waitingTime="29.00" waitingCount="2" stopTime="0.00" timeLoss="45.60" rerouteNo="0" devices="tripinfo_leftW_12" vType="vehicleW_12" speedFactor="0.93" vaporized=""/>
    <tripinfo id="straightW_51" depart="41.00" departLane="edgeW_O_4" departPos="5.57" departSpeed="0.00" departDelay="0.00" arrival="89.00" arrivalLane="edgeE_I_4" arrivalPos="292.10" arrivalSpeed="22.65" duration="48.00" routeLength="594.43" waitingTime="0.00" waitingCount="0" stopTime="0.00" timeLoss="23.72" rerouteNo="0" devices="tripinfo_straightW_51" vType="vehicleW_51" speedFactor="1.04" vaporized=""/>
    <tripinfo id="straightW_55" depart="50.00" departLane="edgeW_O_1" departPos="4.72" departSpeed="0.00" departDelay="2.00" arrival="89.00" arrivalLane="edgeE_I_3" arrivalPos="292.10" arrivalSpeed="19.90" duration="39.00" routeLength="595.28" waitingTime="0.00" waitingCount="0" stopTime="0.00" timeLoss="15.36" rerouteNo="0" devices="tripinfo_straightW_55" vType="vehicleW_55" speedFactor="1.08" vaporized=""/>
    <tripinfo id="straightE_64" depart="60.00" departLane="edgeE_O_4" departPos="5.13" departSpeed="0.00" departDelay="0.00" arrival="89.00" arrivalLane="edgeW_I_4" arrivalPos="292.10" arrivalSpeed="24.98" duration="29.00" routeLength="594.87" waitingTime="0.00" waitingCount="0" stopTime="0.00" timeLoss="5.71" rerouteNo="0" devices="tripinfo_straightE_64" vType="vehicleE_64" speedFactor="1.12" vaporized=""/>
    <tripinfo id="straightW_56" depart="49.00" departLane="edgeW_O_4" departPos="5.33" departSpeed="0.00" departDelay="0.00" arrival="91.00" arrivalLane="edgeE_I_3" arrivalPos="292.10" arrivalSpeed="18.07" duration="42.00" routeLength="594.67" waitingTime="0.00" waitingCount="0" stopTime="0.00" timeLoss="12.44" rerouteNo="0" devices="tripinfo_straightW_56" vType="vehicleW_56" speedFactor="0.87" vaporized=""/>
    <tripinfo id="straightW_58" depart="54.00" departLane="edgeW_O_4" departPos="5.34" departSpeed="0.00" departDelay="0.00" arrival="92.00" arrivalLane="edgeE_I_4" arrivalPos="292.10" arrivalSpeed="18.24" duration="38.00" routeLength="594.65" waitingTime="0.00" waitingCount="0" stopTime="0.00" timeLoss="7.28" rerouteNo="0" devices="tripinfo_straightW_58" vType="vehicleW_58" speedFactor="0.84" vaporized=""/>
    <tripinfo id="straightW_60" depart="56.00" departLane="edgeW_O_2" departPos="4.28" departSpeed="0.00" departDelay="0.00" arrival="93.00" arrivalLane="edgeE_I_3" arrivalPos="292.10" arrivalSpeed="19.64" duration="37.00" routeLength="595.72" waitingTime="0.00" waitingCount="0" stopTime="0.00" timeLoss="11.13" rerouteNo="0" devices="tripinfo_straightW_60" vType="vehicleW_60" speedFactor="0.99" vaporized=""/>
    <tripinfo id="straightW_61" depart="58.00" departLane="edgeW_O_4" departPos="5.04" departSpeed="0.00" departDelay="0.00" arrival="93.00" arrivalLane="edgeE_I_4" arrivalPos="292.10" arrivalSpeed="19.56" duration="35.00" routeLength="594.96" waitingTime="0.00" waitingCount="0" stopTime="0.00" timeLoss="7.19" rerouteNo="0" devices="tripinfo_straightW_61" vType="vehicleW_61" speedFactor="0.90" vaporized=""/>
    <tripinfo id="straightW_66" depart="64.00" departLane="edgeW_O_3" departPos="4.66" departSpeed="0.00" departDelay="0.00" arrival="101.00" arrivalLane="edgeE_I_2" arrivalPos="292.10" arrivalSpeed="16.91" duration="37.00" routeLength="595.34" waitingTime="0.00" waitingCount="0" stopTime="0.00" timeLoss="5.43" rerouteNo="0" devices="tripinfo_straightW_66" vType="vehicleW_66" speedFactor="0.81" vaporized=""/>
    <tripinfo id="straightW_70" depart="68.00" departLane="edgeW_O_3" departPos="4.53" departSpeed="0.00" departDelay="0.00" arrival="104.00" arrivalLane="edgeE_I_4" arrivalPos="292.10" arrivalSpeed="22.82" duration="36.00" routeLength="595.47" waitingTime="0.00" waitingCount="0" stopTime="0.00" timeLoss="10.80" rerouteNo="0" devices="tripinfo_straightW_70" vType="vehicleW_70" speedFactor="1.02" vaporized=""/>
    <tripinfo id="straightW_67" depart="66.00" departLane="edgeW_O_4" departPos="5.00" departSpeed="0.00" departDelay="1.00" arrival="105.00" arrivalLane="edgeE_I_3" arrivalPos="292.10" arrivalSpeed="16.97" duration="39.00" routeLength="595.00" waitingTime="0.00" waitingCount="0" stopTime="0.00" timeLoss="5.79" rerouteNo="0" devices="tripinfo_straightW_67" vType="vehicleW_67" speedFactor="0.76" vaporized=""/>
    <tripinfo id="straightE_75" depart="75.00" departLane="edgeE_O_4" departPos="4.19" departSpeed="0.00" departDelay="0.00" arrival="107.00" arrivalLane="edgeW_I_3" arrivalPos="292.10" arrivalSpeed="22.90" duration="32.00" routeLength="595.81" waitingTime="0.00" waitingCount="0" stopTime="0.00" timeLoss="7.86" rerouteNo="0" devices="tripinfo_straightE_75" vType="vehicleE_75" speedFactor="1.04" vaporized=""/>
    <tripinfo id="straightW_74" depart="79.00" departLane="edgeW_O_4" departPos="4.58" departSpeed="0.00" departDelay="8.00" arrival="113.00" arrivalLane="edgeE_I_4" arrivalPos="292.10" arrivalSpeed="22.75" duration="34.00" routeLength="595.42" waitingTime="0.00" waitingCount="0" stopTime="0.00" timeLoss="9.03" rerouteNo="0" devices="tripinfo_straightW_74" vType="vehicleW_74" speedFactor="1.04" vaporized=""/>
    <tripinfo id="leftW_72" depart="77.00" departLane="edgeW_O_4" departPos="4.54" departSpeed="0.00" departDelay="7.00" arrival="117.00" arrivalLane="edgeN_I_1" arrivalPos="382.50" arrivalSpeed="23.22" duration="40.00" routeLength="693.64" waitingTime="0.00" waitingCount="0" stopTime="0.00" timeLoss="10.80" rerouteNo="0" devices="tripinfo_leftW_72" vType="vehicleW_72" speedFactor="1.01" vaporized=""/>
    <tripinfo id="straightW_80" depart="90.00" departLane="edgeW_O_1" departPos="5.62" departSpeed="0.00" departDelay="0.00" arrival="120.00" arrivalLane="edgeE_I_1" arrivalPos="292.10" arrivalSpeed="24.36" duration="30.00" routeLength="594.38" waitingTime="0.00" waitingCount="0" stopTime="0.00" timeLoss="6.71" rerouteNo="0" devices="tripinfo_straightW_80" vType="vehicleW_80" speedFactor="1.11" vaporized=""/>
    <tripinfo id="straightE_81" depart="90.00" departLane="edgeE_O_1" departPos="5.41" departSpeed="0.00" departDelay="0.00" arrival="121.00" arrivalLane="edgeW_I_1" arrivalPos="292.10" arrivalSpeed="20.65" duration="31.00" routeLength="594.59" waitingTime="0.00" waitingCount="0" stopTime="0.00" timeLoss="5.41" rerouteNo="0" devices="tripinfo_straightE_81" vType="vehicleE_81" speedFactor="0.99" vaporized=""/>
    <tripinfo id="straightW_83" depart="96.00" departLane="edgeW_O_4" departPos="5.74" departSpeed="0.00" departDelay="0.00" arrival="126.00" arrivalLane="edgeE_I_4" arrivalPos="292.10" arrivalSpeed="23.42" duration="30.00" routeLength="594.26" waitingTime="0.00" waitingCount="0" stopTime="0.00" timeLoss="6.32" rerouteNo="0" devices="tripinfo_straightW_83" vType="vehicleW_83" speedFactor="1.06" vaporized=""/>
    <tripinfo id="straightE_90" depart="105.00" departLane="edgeE_O_2" departPos="5.53" departSpeed="0.00" departDelay="0.00" arrival="135.00" arrivalLane="edgeW_I_2" arrivalPos="292.10" arrivalSpeed="23.64" duration="30.00" routeLength="594.47" waitingTime="0.00" waitingCount="0" stopTime="0.00" timeLoss="5.95" rerouteNo="0" devices="tripinfo_straightE_90" vType="vehicleE_90" speedFactor="1.06" vaporized=""/>
    <tripinfo id="straightW_91" depart="107.00" departLane="edgeW_O_3" departPos="4.19" departSpeed="0.00" departDelay="0.00" arrival="137.00" arrivalLane="edgeE_I_3" arrivalPos="292.10" arrivalSpeed="22.90" duration="30.00" routeLength="595.81" waitingTime="0.00" waitingCount="0" stopTime="0.00" timeLoss="5.00" rerouteNo="0" devices="tripinfo_straightW_91" vType="vehicleW_91" speedFactor="1.03" vaporized=""/>
    <tripinfo id="straightE_88" depart="104.00" departLane="edgeE_O_1" departPos="5.53" departSpeed="0.00" departDelay="0.00" arrival="139.00" arrivalLane="edgeW_I_1" arrivalPos="292.10" arrivalSpeed="19.77" duration="35.00" routeLength="594.47" waitingTime="0.00" waitingCount="0" stopTime="0.00" timeLoss="6.04" rerouteNo="0" devices="tripinfo_straightE_88" vType="vehicleE_88" speedFactor="0.89" vaporized=""/>
    <tripinfo id="straightW_92" depart="109.00" departLane="edgeW_O_4" departPos="5.03" departSpeed="0.00" departDelay="0.00" arrival="139.00" arrivalLane="edgeE_I_4" arrivalPos="292.10" arrivalSpeed="22.22" duration="30.00" routeLength="594.97" waitingTime="0.00" waitingCount="0" stopTime="0.00" timeLoss="5.78" rerouteNo="0" devices="tripinfo_straightW_92" vType="vehicleW_92" speedFactor="1.05" vaporized=""/>
    <tripinfo id="straightE_93" depart="110.00" departLane="edgeE_O_2" departPos="4.90" departSpeed="0.00" departDelay="0.00" arrival="140.00" arrivalLane="edgeW_I_2" arrivalPos="292.10" arrivalSpeed="22.44" duration="30.00" routeLength="595.10" waitingTime="0.00" waitingCount="0" stopTime="0.00" timeLoss="5.53" rerouteNo="0" devices="tripinfo_straightE_93" vType="vehicleE_93" speedFactor="1.04" vaporized=""/>
    <tripinfo id="straightE_94" depart="114.00" departLane="edgeE_O_3" departPos="5.32" departSpeed="0.00" departDelay="0.00" arrival="147.00" arrivalLane="edgeW_I_3" arrivalPos="292.10" arrivalSpeed="20.17" duration="33.00" routeLength="594.68" waitingTime="0.00" waitingCount="0" stopTime="0.00" timeLoss="6.16" rerouteNo="0" devices="tripinfo_straightE_94" vType="vehicleE_94" speedFactor="0.93" vaporized=""/>
    <tripinfo id="straightW_96" depart="118.00" departLane="edgeW_O_4" departPos="4.83" departSpeed="0.00" departDelay="0.00" arrival="147.00" arrivalLane="edgeE_I_4" arrivalPos="292.10" arrivalSpeed="24.92" duration="29.00" routeLength="595.17" waitingTime="0.00" waitingCount="0" stopTime="0.00" timeLoss="6.00" rerouteNo="0" devices="tripinfo_straightW_96" vType="vehicleW_96" speedFactor="1.13" vaporized=""/>
    <tripinfo id="straightE_98" depart="120.00" departLane="edgeE_O_2" departPos="4.13" departSpeed="0.00" departDelay="0.00" arrival="154.00" arrivalLane="edgeW_I_1" arrivalPos="292.10" arrivalSpeed="17.99" duration="34.00" routeLength="595.87" waitingTime="0.00" waitingCount="0" stopTime="0.00" timeLoss="4.77" rerouteNo="0" devices="tripinfo_straightE_98" vType="vehicleE_98" speedFactor="0.87" vaporized=""/>
    <tripinfo id="straightE_100" depart="125.00" departLane="edgeE_O_1" departPos="5.69" departSpeed="0.00" departDelay="0.00" arrival="154.00" arrivalLane="edgeW_I_2" arrivalPos="292.10" arrivalSpeed="24.13" duration="29.00" routeLength="594.31" waitingTime="0.00" waitingCount="0" stopTime="0.00" timeLoss="5.16" rerouteNo="0" devices="tripinfo_straightE_100" vType="vehicleE_100" speedFactor="1.08" vaporized=""/>
    <tripinfo id="straightE_101" depart="127.00" departLane="edgeE_O_1" departPos="4.47" departSpeed="0.00" departDelay="1.00" arrival="157.00" arrivalLane="edgeW_I_2" arrivalPos="292.10" arrivalSpeed="25.04" duration="30.00" routeLength="595.53" waitingTime="0.00" waitingCount="0" stopTime="0.00" timeLoss="7.99" rerouteNo="0" devices="tripinfo_straightE_101" vType="vehicleE_101" speedFactor="1.15" vaporized=""/>
    <tripinfo id="straightS_0" depart="0.00" departLane="edgeS_O_1" departPos="4.44" departSpeed="0.00" departDelay="0.00" arrival="178.00" arrivalLane="edgeN_I_1" arrivalPos="382.50" arrivalSpeed="24.45" duration="178.00" routeLength="1195.56" waitingTime="111.00" waitingCount="1" stopTime="0.00" timeLoss="124.45" rerouteNo="0" devices="tripinfo_straightS_0" vType="vehicleS_0" speedFactor="1.02" vaporized=""/>
    <tripinfo id="straightS_6" depart="6.00" departLane="edgeS_O_1" departPos="4.34" departSpeed="0.00" departDelay="0.00" arrival="180.00" arrivalLane="edgeN_I_1" arrivalPos="382.50" arrivalSpeed="22.79" duration="174.00" routeLength="1195.66" waitingTime="106.00" waitingCount="1" stopTime="0.00" timeLoss="119.23" rerouteNo="0" devices="tripinfo_straightS_6" vType="vehicleS_6" speedFactor="0.99" vaporized=""/>
    <tripinfo id="straightS_14" depart="13.00" departLane="edgeS_O_1" departPos="4.10" departSpeed="0.00" departDelay="0.00" arrival="182.00" arrivalLane="edgeN_I_1" arrivalPos="382.50" arrivalSpeed="24.60" duration="169.00" routeLength="1195.90" waitingTime="100.00" waitingCount="1" stopTime="0.00" timeLoss="115.46" rerouteNo="0" devices="tripinfo_straightS_14" vType="vehicleS_14" speedFactor="1.03" vaporized=""/>
    <tripinfo id="straightS_16" depart="16.00" departLane="edgeS_O_1" departPos="5.66" departSpeed="0.00" departDelay="2.00" arrival="186.00" arrivalLane="edgeN_I_1" arrivalPos="382.50" arrivalSpeed="21.91" duration="170.00" routeLength="1194.34" waitingTime="96.00" waitingCount="1" stopTime="0.00" timeLoss="111.99" rerouteNo="0" devices="tripinfo_straightS_16" vType="vehicleS_16" speedFactor="0.95" vaporized=""/>
    <tripinfo id="straightS_17" depart="19.00" departLane="edgeS_O_1" departPos="5.00" departSpeed="0.00" departDelay="2.00" arrival="188.00" arrivalLane="edgeN_I_1" arrivalPos="382.50" arrivalSpeed="23.86" duration="169.00" routeLength="1195.00" waitingTime="95.00" waitingCount="1" stopTime="0.00" timeLoss="116.34" rerouteNo="0" devices="tripinfo_straightS_17" vType="vehicleS_17" speedFactor="1.04" vaporized=""/>
    <tripinfo id="straightS_23" depart="22.00" departLane="edgeS_O_1" departPos="5.47" departSpeed="0.00" departDelay="3.00" arrival="189.00" arrivalLane="edgeN_I_1" arrivalPos="382.50" arrivalSpeed="25.53" duration="167.00" routeLength="1194.53" waitingTime="93.00" waitingCount="1" stopTime="0.00" timeLoss="115.42" rerouteNo="0" devices="tripinfo_straightS_23" vType="vehicleS_23" speedFactor="1.05" vaporized=""/>
    <tripinfo id="straightS_27" depart="24.00" departLane="edgeS_O_1" departPos="4.91" departSpeed="0.00" departDelay="4.00" arrival="192.00" arrivalLane="edgeN_I_1" arrivalPos="382.50" arrivalSpeed="23.71" duration="168.00" routeLength="1195.09" waitingTime="92.00" waitingCount="1" stopTime="0.00" timeLoss="115.74" rerouteNo="0" devices="tripinfo_straightS_27" vType="vehicleS_27" speedFactor="1.05" vaporized=""/>
    <tripinfo id="straightS_29" depart="27.00" departLane="edgeS_O_1" departPos="5.17" departSpeed="0.00" departDelay="6.00" arrival="193.00" arrivalLane="edgeN_I_1" arrivalPos="382.50" arrivalSpeed="24.74" duration="166.00" routeLength="1194.83" waitingTime="91.00" waitingCount="1" stopTime="0.00" timeLoss="114.37" rerouteNo="0" devices="tripinfo_straightS_29" vType="vehicleS_29" speedFactor="1.05" vaporized=""/>
    <tripinfo id="straightS_33" depart="30.00" departLane="edgeS_O_1" departPos="4.57" departSpeed="0.00" departDelay="6.00" arrival="195.00" arrivalLane="edgeN_I_1" arrivalPos="382.50" arrivalSpeed="21.34" duration="165.00" routeLength="1195.43" waitingTime="89.00" waitingCount="1" stopTime="0.00" timeLoss="106.75" rerouteNo="0" devices="tripinfo_straightS_33" vType="vehicleS_33" speedFactor="0.93" vaporized=""/>