<?xml version="1.0" encoding="UTF-8"?>

<!-- generated on 2021-10-23 05:40:01 by Eclipse SUMO sumo Version 1.10.0
<configuration xmlns:xsi="http://www.w3.org/2001/XMLSchema-instance" xsi:noNamespaceSchemaLocation="http://sumo.dlr.de/xsd/sumoConfiguration.xsd">

    <input>
        <net-file value="data3/cross.net.xml"/>
        <route-files value="data3/cross.rou.xml"/>
        <additional-files value="data3/cross.tls.xml"/>
    </input>

    <output>
        <tripinfo-output value="data3/tripinfo.xml"/>
        <tripinfo-output.write-unfinished value="true"/>
    </output>

    <time>
        <begin value="0"/>
        <step-length value="1"/>
    </time>

    <processing>
        <threads value="5"/>
        <time-to-teleport value="-1"/>
    </processing>

    <report>
        <verbose value="true"/>
        <no-warnings value="true"/>
        <no-step-log value="true"/>
    </report>

    <traci_server>
        <remote-port value="49270"/>
    </traci_server>

    <gui_only>
        <gui-settings-file value="data3/viewsettings.xml"/>
        <tracker-interval value="1"/>
    </gui_only>

</configuration>
-->

<tripinfos xmlns:xsi="http://www.w3.org/2001/XMLSchema-instance" xsi:noNamespaceSchemaLocation="http://sumo.dlr.de/xsd/tripinfo_file.xsd">
    <tripinfo id="leftS_0" depart="0.00" departLane="edgeS_O_5" departPos="4.40" departSpeed="0.00" departDelay="0.00" arrival="71.00" arrivalLane="edgeW_I_3" arrivalPos="579.30" arrivalSpeed="20.38" duration="71.00" routeLength="1390.82" waitingTime="0.00" waitingCount="0" stopTime="0.00" timeLoss="8.71" rerouteNo="0" devices="tripinfo_leftS_0" vType="vehicleS_0" speedFactor="1.10" vaporized=""/>
    <tripinfo id="straightN_2" depart="1.00" departLane="edgeN_O_4" departPos="5.39" departSpeed="0.00" departDelay="0.00" arrival="84.00" arrivalLane="edgeS_I_1" arrivalPos="782.50" arrivalSpeed="17.22" duration="83.00" routeLength="1594.61" waitingTime="0.00" waitingCount="0" stopTime="0.00" timeLoss="10.22" rerouteNo="0" devices="tripinfo_straightN_2" vType="vehicleN_2" speedFactor="1.25" vaporized=""/>
    <tripinfo id="rightS_16" depart="6.00" departLane="edgeS_O_1" departPos="5.29" departSpeed="0.00" departDelay="0.00" arrival="86.00" arrivalLane="edgeE_I_1" arrivalPos="679.30" arrivalSpeed="18.18" duration="80.00" routeLength="1466.66" waitingTime="0.00" waitingCount="0" stopTime="0.00" timeLoss="10.22" rerouteNo="0" devices="tripinfo_rightS_16" vType="vehicleS_16" speedFactor="1.04" vaporized=""/>
    <tripinfo id="leftN_11" depart="6.00" departLane="edgeN_O_5" departPos="5.62" departSpeed="0.00" departDelay="2.00" arrival="88.00" arrivalLane="edgeE_I_3" arrivalPos="679.30" arrivalSpeed="18.93" duration="82.00" routeLength="1489.60" waitingTime="0.00" waitingCount="0" stopTime="0.00" timeLoss="13.19" rerouteNo="0" devices="tripinfo_leftN_11" vType="vehicleN_11" speedFactor="1.07" vaporized=""/>
    <tripinfo id="straightS_20" depart="8.00" departLane="edgeS_O_2" departPos="5.69" departSpeed="0.00" departDelay="0.00" arrival="93.00" arrivalLane="edgeN_I_1" arrivalPos="782.50" arrivalSpeed="15.37" duration="85.00" routeLength="1594.31" waitingTime="0.00" waitingCount="0" stopTime="0.00" timeLoss="8.23" rerouteNo="0" devices="tripinfo_straightS_20" vType="vehicleS_20" speedFactor="1.18" vaporized=""/>
    <tripinfo id="rightN_37" depart="17.00" departLane="edgeN_O_1" departPos="4.43" departSpeed="0.00" departDelay="0.00" arrival="99.00" arrivalLane="edgeW_I_1" arrivalPos="579.30" arrivalSpeed="19.09" duration="82.00" routeLength="1367.53" waitingTime="0.00" waitingCount="0" stopTime="0.00" timeLoss="19.28" rerouteNo="0" devices="tripinfo_rightN_37" vType="vehicleN_37" speedFactor="1.07" vaporized=""/>
    <tripinfo id="rightS_59" depart="27.00" departLane="edgeS_O_1" departPos="4.54" departSpeed="0.00" departDelay="0.00" arrival="101.00" arrivalLane="edgeE_I_2" arrivalPos="679.30" arrivalSpeed="22.04" duration="74.00" routeLength="1467.42" waitingTime="0.00" waitingCount="0" stopTime="0.00" timeLoss="14.13" rerouteNo="0" devices="tripinfo_rightS_59" vType="vehicleS_59" speedFactor="1.22" vaporized=""/>
    <tripinfo id="rightN_55" depart="26.00" departLane="edgeN_O_1" departPos="4.35" departSpeed="0.00" departDelay="0.00" arrival="103.00" arrivalLane="edgeW_I_2" arrivalPos="579.30" arrivalSpeed="21.58" duration="77.00" routeLength="1367.61" waitingTime="0.00" waitingCount="0" stopTime="0.00" timeLoss="20.60" rerouteNo="0" devices="tripinfo_rightN_55" vType="vehicleN_55" speedFactor="1.19" vaporized=""/>
    <tripinfo id="rightN_41" depart="20.00" departLane="edgeN_O_1" departPos="5.28" departSpeed="0.00" departDelay="0.00" arrival="104.00" arrivalLane="edgeW_I_1" arrivalPos="579.30" arrivalSpeed="17.60" duration="84.00" routeLength="1366.68" waitingTime="0.00" waitingCount="0" stopTime="0.00" timeLoss="17.51" rerouteNo="0" devices="tripinfo_rightN_41" vType="vehicleN_41" speedFactor="1.01" vaporized=""/>
    <tripinfo id="uturnN_8" depart="3.00" departLane="edgeN_O_5" departPos="5.12" departSpeed="0.00" departDelay="0.00" arrival="106.00" arrivalLane="edgeN_I_1" arrivalPos="782.50" arrivalSpeed="13.12" duration="103.00" routeLength="1564.56" waitingTime="0.00" waitingCount="0" stopTime="0.00" timeLoss="12.73" rerouteNo="0" devices="tripinfo_uturnN_8" vType="vehicleN_8" speedFactor="1.00" vaporized=""/>
    <tripinfo id="straightN_21" depart="9.00" departLane="edgeN_O_2" departPos="4.14" departSpeed="0.00" departDelay="0.00" arrival="108.00" arrivalLane="edgeS_I_1" arrivalPos="782.50" arrivalSpeed="12.74" duration="99.00" routeLength="1595.86" waitingTime="0.00" waitingCount="0" stopTime="0.00" timeLoss="8.84" rerouteNo="0" devices="tripinfo_straightN_21" vType="vehicleN_21" speedFactor="1.00" vaporized=""/>
    <tripinfo id="rightN_58" depart="29.00" departLane="edgeN_O_1" departPos="4.67" departSpeed="0.00" departDelay="2.00" arrival="110.00" arrivalLane="edgeW_I_1" arrivalPos="579.30" arrivalSpeed="17.66" duration="81.00" routeLength="1367.29" waitingTime="0.00" waitingCount="0" stopTime="0.00" timeLoss="15.08" rerouteNo="0" devices="tripinfo_rightN_58" vType="vehicleN_58" speedFactor="1.02" vaporized=""/>
    <tripinfo id="straightN_51" depart="25.00" departLane="edgeN_O_3" departPos="4.70" departSpeed="0.00" departDelay="0.00" arrival="113.00" arrivalLane="edgeS_I_3" arrivalPos="782.50" arrivalSpeed="16.33" duration="88.00" routeLength="1595.30" waitingTime="0.00" waitingCount="0" stopTime="0.00" timeLoss="10.30" rerouteNo="0" devices="tripinfo_straightN_51" vType="vehicleN_51" speedFactor="1.18" vaporized=""/>
    <tripinfo id="rightS_27" depart="13.00" departLane="edgeS_O_1" departPos="4.12" departSpeed="0.00" departDelay="0.00" arrival="114.00" arrivalLane="edgeE_I_1" arrivalPos="679.30" arrivalSpeed="14.20" duration="101.00" routeLength="1467.84" waitingTime="0.00" waitingCount="0" stopTime="0.00" timeLoss="10.48" rerouteNo="0" devices="tripinfo_rightS_27" vType="vehicleS_27" speedFactor="0.80" vaporized=""/>
    <tripinfo id="straightS_39" depart="18.00" departLane="edgeS_O_4" departPos="4.14" departSpeed="0.00" departDelay="0.00" arrival="114.00" arrivalLane="edgeN_I_1" arrivalPos="782.50" arrivalSpeed="14.80" duration="96.00" routeLength="1595.86" waitingTime="0.00" waitingCount="0" stopTime="0.00" timeLoss="9.19" rerouteNo="0" devices="tripinfo_straightS_39" vType="vehicleS_39" speedFactor="1.05" vaporized=""/>
    <tripinfo id="straightS_44" depart="21.00" departLane="edgeS_O_2" departPos="5.22" departSpeed="0.00" departDelay="0.00" arrival="115.00" arrivalLane="edgeN_I_2" arrivalPos="782.50" arrivalSpeed="13.83" duration="94.00" routeLength="1594.78" waitingTime="0.00" waitingCount="0" stopTime="0.00" timeLoss="9.20" rerouteNo="0" devices="tripinfo_straightS_44" vType="vehicleS_44" speedFactor="1.06" vaporized=""/>
    <tripinfo id="straightN_24" depart="12.00" departLane="edgeN_O_1" departPos="4.41" departSpeed="0.00" departDelay="0.00" arrival="116.00" arrivalLane="edgeS_I_1" arrivalPos="782.50" arrivalSpeed="11.98" duration="104.00" routeLength="1595.59" waitingTime="0.00" waitingCount="0" stopTime="0.00" timeLoss="8.81" rerouteNo="0" devices="tripinfo_straightN_24" vType="vehicleN_24" speedFactor="0.95" vaporized=""/>
    <tripinfo id="straightN_38" depart="18.00" departLane="edgeN_O_3" departPos="4.98" departSpeed="0.00" departDelay="0.00" arrival="116.00" arrivalLane="edgeS_I_2" arrivalPos="782.50" arrivalSpeed="13.48" duration="98.00" routeLength="1595.02" waitingTime="0.00" waitingCount="0" stopTime="0.00" timeLoss="8.54" rerouteNo="0" devices="tripinfo_straightN_38" vType="vehicleN_38" speedFactor="1.02" vaporized=""/>
    <tripinfo id="straightS_33" depart="15.00" departLane="edgeS_O_3" departPos="5.66" departSpeed="0.00" departDelay="0.00" arrival="117.00" arrivalLane="edgeN_I_1" arrivalPos="782.50" arrivalSpeed="12.99" duration="102.00" routeLength="1594.34" waitingTime="0.00" waitingCount="0" stopTime="0.00" timeLoss="8.30" rerouteNo="0" devices="tripinfo_straightS_33" vType="vehicleS_33" speedFactor="0.97" vaporized=""/>
    <tripinfo id="leftS_3" depart="2.00" departLane="edgeS_O_5" departPos="5.64" departSpeed="0.00" departDelay="1.00" arrival="118.00" arrivalLane="edgeW_I_1" arrivalPos="579.30" arrivalSpeed="14.36" duration="116.00" routeLength="1389.58" waitingTime="18.00" waitingCount="1" stopTime="0.00" timeLoss="33.95" rerouteNo="0" devices="tripinfo_leftS_3" vType="vehicleS_3" speedFactor="0.83" vaporized=""/>
    <tripinfo id="straightN_5" depart="2.00" departLane="edgeN_O_2" departPos="5.09" departSpeed="0.00" departDelay="0.00" arrival="120.00" arrivalLane="edgeS_I_1" arrivalPos="782.50" arrivalSpeed="10.51" duration="118.00" routeLength="1594.91" waitingTime="0.00" waitingCount="0" stopTime="0.00" timeLoss="10.12" rerouteNo="0" devices="tripinfo_straightN_5" vType="vehicleN_5" speedFactor="0.84" vaporized=""/>
    <tripinfo id="straightN_32" depart="15.00" departLane="edgeN_O_4" departPos="5.59" departSpeed="0.00" departDelay="0.00" arrival="120.00" arrivalLane="edgeS_I_2" arrivalPos="782.50" arrivalSpeed="13.51" duration="105.00" routeLength="1594.41" waitingTime="0.00" waitingCount="0" stopTime="0.00" timeLoss="9.44" rerouteNo="0" devices="tripinfo_straightN_32" vType="vehicleN_32" speedFactor="0.95" vaporized=""/>
    <tripinfo id="leftS_14" depart="8.00" departLane="edgeS_O_5" departPos="4.21" departSpeed="0.00" departDelay="3.00" arrival="121.00" arrivalLane="edgeW_I_3" arrivalPos="579.30" arrivalSpeed="17.37" duration="113.00" routeLength="1391.01" waitingTime="14.00" waitingCount="3" stopTime="0.00" timeLoss="44.65" rerouteNo="0" devices="tripinfo_leftS_14" vType="vehicleS_14" speedFactor="0.99" vaporized=""/>
    <tripinfo id="straightS_52" depart="25.00" departLane="edgeS_O_1" departPos="5.17" departSpeed="0.00" departDelay="0.00" arrival="121.00" arrivalLane="edgeN_I_1" arrivalPos="782.50" arrivalSpeed="14.59" duration="96.00" routeLength="1594.83" waitingTime="0.00" waitingCount="0" stopTime="0.00" timeLoss="8.70" rerouteNo="0" devices="tripinfo_straightS_52" vType="vehicleS_52" speedFactor="1.04" vaporized=""/>
    <tripinfo id="leftS_45" depart="22.00" departLane="edgeS_O_5" departPos="4.55" departSpeed="0.00" departDelay="0.00" arrival="124.00" arrivalLane="edgeW_I_4" arrivalPos="579.30" arrivalSpeed="20.90" duration="102.00" routeLength="1390.67" waitingTime="17.00" waitingCount="4" stopTime="0.00" timeLoss="41.74" rerouteNo="0" devices="tripinfo_leftS_45" vType="vehicleS_45" speedFactor="1.14" vaporized=""/>
    <tripinfo id="rightS_61" depart="30.00" departLane="edgeS_O_1" departPos="5.07" departSpeed="0.00" departDelay="2.00" arrival="124.00" arrivalLane="edgeE_I_1" arrivalPos="679.30" arrivalSpeed="15.71" duration="94.00" routeLength="1466.89" waitingTime="0.00" waitingCount="0" stopTime="0.00" timeLoss="11.82" rerouteNo="0" devices="tripinfo_rightS_61" vType="vehicleS_61" speedFactor="0.88" vaporized=""/>
    <tripinfo id="straightS_71" depart="40.00" departLane="edgeS_O_3" departPos="5.49" departSpeed="0.00" departDelay="0.00" arrival="125.00" arrivalLane="edgeN_I_3" arrivalPos="782.50" arrivalSpeed="17.21" duration="85.00" routeLength="1594.51" waitingTime="0.00" waitingCount="0" stopTime="0.00" timeLoss="9.43" rerouteNo="0" devices="tripinfo_straightS_71" vType="vehicleS_71" speedFactor="1.21" vaporized=""/>
    <tripinfo id="uturnS_12" depart="6.00" departLane="edgeS_O_5" departPos="4.80" departSpeed="0.00" departDelay="2.00" arrival="126.00" arrivalLane="edgeS_I_1" arrivalPos="782.50" arrivalSpeed="12.97" duration="120.00" routeLength="1564.88" waitingTime="5.00" waitingCount="1" stopTime="0.00" timeLoss="25.41" rerouteNo="0" devices="tripinfo_uturnS_12" vType="vehicleS_12" speedFactor="0.96" vaporized=""/>
    <tripinfo id="uturnN_18" depart="9.00" departLane="edgeN_O_5" departPos="5.50" departSpeed="0.00" departDelay="2.00" arrival="126.00" arrivalLane="edgeN_I_1" arrivalPos="782.50" arrivalSpeed="13.60" duration="117.00" routeLength="1564.18" waitingTime="11.00" waitingCount="1" stopTime="0.00" timeLoss="26.27" rerouteNo="0" devices="tripinfo_uturnN_18" vType="vehicleN_18" speedFactor="1.00" vaporized=""/>
    <tripinfo id="rightS_81" depart="44.00" departLane="edgeS_O_1" departPos="4.80" departSpeed="0.00" departDelay="0.00" arrival="128.00" arrivalLane="edgeE_I_1" arrivalPos="679.30" arrivalSpeed="17.79" duration="84.00" routeLength="1467.16" waitingTime="0.00" waitingCount="0" stopTime="0.00" timeLoss="12.55" rerouteNo="0" devices="tripinfo_rightS_81" vType="vehicleS_81" speedFactor="1.02" vaporized=""/>
    <tripinfo id="leftS_56" depart="28.00" departLane="edgeS_O_5" departPos="5.15" departSpeed="0.00" departDelay="2.00" arrival="130.00" arrivalLane="edgeW_I_3" arrivalPos="579.30" arrivalSpeed="17.98" duration="102.00" routeLength="1390.07" waitingTime="7.00" waitingCount="2" stopTime="0.00" timeLoss="35.43" rerouteNo="0" devices="tripinfo_leftS_56" vType="vehicleS_56" speedFactor="1.03" vaporized=""/>
    <tripinfo id="leftN_74" depart="41.00" departLane="edgeN_O_5" departPos="5.64" departSpeed="0.00" departDelay="0.00" arrival="133.00" arrivalLane="edgeE_I_3" arrivalPos="679.30" arrivalSpeed="19.42" duration="92.00" routeLength="1489.58" waitingTime="6.00" waitingCount="1" stopTime="0.00" timeLoss="25.24" rerouteNo="0" devices="tripinfo_leftN_74" vType="vehicleN_74" speedFactor="1.10" vaporized=""/>
    <tripinfo id="straightN_29" depart="14.00" departLane="edgeN_O_1" departPos="5.50" departSpeed="0.00" departDelay="0.00" arrival="134.00" arrivalLane="edgeS_I_1" arrivalPos="782.50" arrivalSpeed="10.91" duration="120.00" routeLength="1594.50" waitingTime="0.00" waitingCount="0" stopTime="0.00" timeLoss="10.35" rerouteNo="0" devices="tripinfo_straightN_29" vType="vehicleN_29" speedFactor="0.83" vaporized=""/>
    <tripinfo id="uturnS_30" depart="14.00" departLane="edgeS_O_5" departPos="5.44" departSpeed="0.00" departDelay="0.00" arrival="135.00" arrivalLane="edgeS_I_2" arrivalPos="782.50" arrivalSpeed="14.70" duration="121.00" routeLength="1564.24" waitingTime="13.00" waitingCount="2" stopTime="0.00" timeLoss="35.61" rerouteNo="0" devices="tripinfo_uturnS_30" vType="vehicleS_30" speedFactor="1.05" vaporized=""/>
    <tripinfo id="straightS_70" depart="38.00" departLane="edgeS_O_2" departPos="4.68" departSpeed="0.00" departDelay="0.00" arrival="138.00" arrivalLane="edgeN_I_1" arrivalPos="782.50" arrivalSpeed="13.72" duration="100.00" routeLength="1595.32" waitingTime="0.00" waitingCount="0" stopTime="0.00" timeLoss="9.02" rerouteNo="0" devices="tripinfo_straightS_70" vType="vehicleS_70" speedFactor="1.00" vaporized=""/>
    <tripinfo id="leftS_63" depart="31.00" departLane="edgeS_O_5" departPos="5.19" departSpeed="0.00" departDelay="1.00" arrival="139.00" arrivalLane="edgeW_I_3" arrivalPos="579.30" arrivalSpeed="17.97" duration="108.00" routeLength="1390.03" waitingTime="8.00" waitingCount="3" stopTime="0.00" timeLoss="40.69" rerouteNo="0" devices="tripinfo_leftS_63" vType="vehicleS_63" speedFactor="1.01" vaporized=""/>
    <tripinfo id="leftS_67" depart="35.00" departLane="edgeS_O_5" departPos="5.20" departSpeed="0.00" departDelay="0.00" arrival="141.00" arrivalLane="edgeW_I_4" arrivalPos="579.30" arrivalSpeed="19.70" duration="106.00" routeLength="1390.02" waitingTime="5.00" waitingCount="3" stopTime="0.00" timeLoss="42.66" rerouteNo="0" devices="tripinfo_leftS_67" vType="vehicleS_67" speedFactor="1.07" vaporized=""/>
    <tripinfo id="rightS_112" depart="64.00" departLane="edgeS_O_1" departPos="4.73" departSpeed="0.00" departDelay="0.00" arrival="143.00" arrivalLane="edgeE_I_1" arrivalPos="679.30" arrivalSpeed="18.25" duration="79.00" routeLength="1467.23" waitingTime="0.00" waitingCount="0" stopTime="0.00" timeLoss="10.48" rerouteNo="0" devices="tripinfo_rightS_112" vType="vehicleS_112" speedFactor="1.04" vaporized=""/>
    <tripinfo id="straightN_87" depart="51.00" departLane="edgeN_O_4" departPos="5.31" departSpeed="0.00" departDelay="0.00" arrival="146.00" arrivalLane="edgeS_I_1" arrivalPos="782.50" arrivalSpeed="14.66" duration="95.00" routeLength="1594.69" waitingTime="0.00" waitingCount="0" stopTime="0.00" timeLoss="8.78" rerouteNo="0" devices="tripinfo_straightN_87" vType="vehicleN_87" speedFactor="1.06" vaporized=""/>
    <tripinfo id="uturnS_48" depart="25.00" departLane="edgeS_O_5" departPos="5.38" departSpeed="0.00" departDelay="1.00" arrival="149.00" arrivalLane="edgeS_I_1" arrivalPos="782.50" arrivalSpeed="12.91" duration="124.00" routeLength="1564.30" waitingTime="8.00" waitingCount="1" stopTime="0.00" timeLoss="25.80" rerouteNo="0" devices="tripinfo_uturnS_48" vType="vehicleS_48" speedFactor="0.91" vaporized=""/>
    <tripinfo id="leftS_75" depart="41.00" departLane="edgeS_O_5" departPos="4.28" departSpeed="0.00" departDelay="0.00" arrival="150.00" arrivalLane="edgeW_I_1" arrivalPos="579.30" arrivalSpeed="14.87" duration="109.00" routeLength="1390.94" waitingTime="0.00" waitingCount="0" stopTime="0.00" timeLoss="27.74" rerouteNo="0" devices="tripinfo_leftS_75" vType="vehicleS_75" speedFactor="0.83" vaporized=""/>
    <tripinfo id="straightS_88" depart="51.00" departLane="edgeS_O_2" departPos="5.31" departSpeed="0.00" departDelay="0.00" arrival="151.00" arrivalLane="edgeN_I_1" arrivalPos="782.50" arrivalSpeed="13.66" duration="100.00" routeLength="1594.69" waitingTime="0.00" waitingCount="0" stopTime="0.00" timeLoss="8.30" rerouteNo="0" devices="tripinfo_straightS_88" vType="vehicleS_88" speedFactor="0.99" vaporized=""/>
    <tripinfo id="straightS_107" depart="61.00" departLane="edgeS_O_2" departPos="5.30" departSpeed="0.00" departDelay="0.00" arrival="152.00" arrivalLane="edgeN_I_2" arrivalPos="782.50" arrivalSpeed="14.54" duration="91.00" routeLength="1594.70" waitingTime="0.00" waitingCount="0" stopTime="0.00" timeLoss="9.53" rerouteNo="0" devices="tripinfo_straightS_107" vType="vehicleS_107" speedFactor="1.11" vaporized=""/>
    <tripinfo id="leftS_77" depart="44.00" departLane="edgeS_O_5" departPos="4.55" departSpeed="0.00" departDelay="2.00" arrival="153.00" arrivalLane="edgeW_I_3" arrivalPos="579.30" arrivalSpeed="17.50" duration="109.00" routeLength="1390.67" waitingTime="3.00" waitingCount="1" stopTime="0.00" timeLoss="41.30" rerouteNo="0" devices="tripinfo_leftS_77" vType="vehicleS_77" speedFactor="1.01" vaporized=""/>
    <tripinfo id="straightN_66" depart="35.00" departLane="edgeN_O_1" departPos="5.23" departSpeed="0.00" departDelay="0.00" arrival="155.00" arrivalLane="edgeS_I_1" arrivalPos="782.50" arrivalSpeed="11.45" duration="120.00" routeLength="1594.77" waitingTime="0.00" waitingCount="0" stopTime="0.00" timeLoss="9.35" rerouteNo="0" devices="tripinfo_straightN_66" vType="vehicleN_66" speedFactor="0.82" vaporized=""/>
    <tripinfo id="rightS_119" depart="69.00" departLane="edgeS_O_1" departPos="4.47" departSpeed="0.00" departDelay="2.00" arrival="156.00" arrivalLane="edgeE_I_1" arrivalPos="679.30" arrivalSpeed="16.13" duration="87.00" routeLength="1467.49" waitingTime="0.00" waitingCount="0" stopTime="0.00" timeLoss="10.25" rerouteNo="0" devices="tripinfo_rightS_119" vType="vehicleS_119" speedFactor="0.94" vaporized=""/>
    <tripinfo id="leftN_124" depart="70.00" departLane="edgeN_O_5" departPos="5.50" departSpeed="0.00" departDelay="0.00" arrival="156.00" arrivalLane="edgeE_I_3" arrivalPos="679.30" arrivalSpeed="19.16" duration="86.00" routeLength="1489.72" waitingTime="3.00" waitingCount="1" stopTime="0.00" timeLoss="18.31" rerouteNo="0" devices="tripinfo_leftN_124" vType="vehicleN_124" speedFactor="1.09" vaporized=""/>
    <tripinfo id="leftN_137" depart="79.00" departLane="edgeN_O_5" departPos="5.42" departSpeed="0.00" departDelay="0.00" arrival="157.00" arrivalLane="edgeE_I_4" arrivalPos="679.30" arrivalSpeed="20.04" duration="78.00" routeLength="1489.80" waitingTime="0.00" waitingCount="0" stopTime="0.00" timeLoss="13.34" rerouteNo="0" devices="tripinfo_leftN_137" vType="vehicleN_137" speedFactor="1.14" vaporized=""/>
    <tripinfo id="straightS_106" depart="60.00" departLane="edgeS_O_1" departPos="5.67" departSpeed="0.00" departDelay="0.00" arrival="158.00" arrivalLane="edgeN_I_1" arrivalPos="782.50" arrivalSpeed="13.64" duration="98.00" routeLength="1594.34" waitingTime="0.00" waitingCount="0" stopTime="0.00" timeLoss="8.89" rerouteNo="0" devices="tripinfo_straightS_106" vType="vehicleS_106" speedFactor="1.02" vaporized=""/>
    <tripinfo id="straightE_4" depart="1.00" departLane="edgeE_O_3" departPos="4.10" departSpeed="0.00" departDelay="0.00" arrival="159.00" arrivalLane="edgeW_I_1" arrivalPos="579.30" arrivalSpeed="17.61" duration="158.00" routeLength="1295.90" waitingTime="53.00" waitingCount="1" stopTime="0.00" timeLoss="65.93" rerouteNo="0" devices="tripinfo_straightE_4" vType="vehicleE_4" speedFactor="0.99" vaporized=""/>
    <tripinfo id="uturnN_105" depart="60.00" departLane="edgeN_O_5" departPos="5.40" departSpeed="0.00" departDelay="0.00" arrival="160.00" arrivalLane="edgeN_I_3" arrivalPos="782.50" arrivalSpeed="15.28" duration="100.00" routeLength="1564.28" waitingTime="4.00" waitingCount="1" stopTime="0.00" timeLoss="17.01" rerouteNo="0" devices="tripinfo_uturnN_105" vType="vehicleN_105" speedFactor="1.08" vaporized=""/>
    <tripinfo id="straightS_116" depart="66.00" departLane="edgeS_O_1" departPos="5.41" departSpeed="0.00" departDelay="0.00" arrival="160.00" arrivalLane="edgeN_I_2" arrivalPos="782.50" arrivalSpeed="13.58" duration="94.00" routeLength="1594.59" waitingTime="0.00" waitingCount="0" stopTime="0.00" timeLoss="9.10" rerouteNo="0" devices="tripinfo_straightS_116" vType="vehicleS_116" speedFactor="1.07" vaporized=""/>
    <tripinfo id="straightE_7" depart="3.00" departLane="edgeE_O_4" departPos="5.43" departSpeed="0.00" departDelay="1.00" arrival="163.00" arrivalLane="edgeW_I_1" arrivalPos="579.30" arrivalSpeed="16.98" duration="160.00" routeLength="1294.57" waitingTime="48.00" waitingCount="1" stopTime="0.00" timeLoss="61.62" rerouteNo="0" devices="tripinfo_straightE_7" vType="vehicleE_7" speedFactor="0.92" vaporized=""/>
    <tripinfo id="straightE_13" depart="6.00" departLane="edgeE_O_2" departPos="5.54" departSpeed="0.00" departDelay="2.00" arrival="164.00" arrivalLane="edgeW_I_2" arrivalPos="579.30" arrivalSpeed="17.13" duration="158.00" routeLength="1294.46" waitingTime="46.00" waitingCount="1" stopTime="0.00" timeLoss="61.59" rerouteNo="0" devices="tripinfo_straightE_13" vType="vehicleE_13" speedFactor="0.94" vaporized=""/>
    <tripinfo id="straightE_46" depart="22.00" departLane="edgeE_O_3" departPos="4.20" departSpeed="0.00" departDelay="0.00" arrival="165.00" arrivalLane="edgeW_I_4" arrivalPos="579.30" arrivalSpeed="18.30" duration="143.00" routeLength="1295.80" waitingTime="39.00" waitingCount="1" stopTime="0.00" timeLoss="55.31" rerouteNo="0" devices="tripinfo_straightE_46" vType="vehicleE_46" speedFactor="1.04" vaporized=""/>
    <tripinfo id="straightW_9" depart="3.00" departLane="edgeW_O_4" departPos="5.70" departSpeed="0.00" departDelay="0.00" arrival="166.00" arrivalLane="edgeE_I_1" arrivalPos="679.30" arrivalSpeed="17.50" duration="163.00" routeLength="1294.30" waitingTime="58.00" waitingCount="1" stopTime="0.00" timeLoss="71.62" rerouteNo="0" devices="tripinfo_straightW_9" vType="vehicleW_9" speedFactor="0.96" vaporized=""/>
    <tripinfo id="straightE_31" depart="14.00" departLane="edgeE_O_3" departPos="4.39" departSpeed="0.00" departDelay="0.00" arrival="166.00" arrivalLane="edgeW_I_1" arrivalPos="579.30" arrivalSpeed="17.35" duration="152.00" routeLength="1295.61" waitingTime="43.00" waitingCount="1" stopTime="0.00" timeLoss="61.32" rerouteNo="0" devices="tripinfo_straightE_31" vType="vehicleE_31" speedFactor="1.00" vaporized=""/>
    <tripinfo id="straightE_76" depart="41.00" departLane="edgeE_O_2" departPos="5.05" departSpeed="0.00" departDelay="0.00" arrival="166.00" arrivalLane="edgeW_I_4" arrivalPos="579.30" arrivalSpeed="20.57" duration="125.00" routeLength="1294.95" waitingTime="35.00" waitingCount="1" stopTime="0.00" timeLoss="51.96" rerouteNo="0" devices="tripinfo_straightE_76" vType="vehicleE_76" speedFactor="1.23" vaporized=""/>
    <tripinfo id="straightW_42" depart="20.00" departLane="edgeW_O_2" departPos="4.47" departSpeed="0.00" departDelay="0.00" arrival="167.00" arrivalLane="edgeE_I_4" arrivalPos="679.30" arrivalSpeed="17.41" duration="147.00" routeLength="1295.53" waitingTime="45.00" waitingCount="1" stopTime="0.00" timeLoss="60.08" rerouteNo="0" devices="tripinfo_straightW_42" vType="vehicleW_42" speedFactor="1.01" vaporized=""/>
    <tripinfo id="straightE_57" depart="26.00" departLane="edgeE_O_2" departPos="4.72" departSpeed="0.00" departDelay="0.00" arrival="167.00" arrivalLane="edgeW_I_3" arrivalPos="579.30" arrivalSpeed="19.16" duration="141.00" routeLength="1295.28" waitingTime="38.00" waitingCount="1" stopTime="0.00" timeLoss="55.62" rerouteNo="0" devices="tripinfo_straightE_57" vType="vehicleE_57" speedFactor="1.06" vaporized=""/>
    <tripinfo id="straightE_22" depart="9.00" departLane="edgeE_O_4" departPos="5.05" departSpeed="0.00" departDelay="0.00" arrival="168.00" arrivalLane="edgeW_I_2" arrivalPos="579.30" arrivalSpeed="16.05" duration="159.00" routeLength="1294.95" waitingTime="43.00" waitingCount="1" stopTime="0.00" timeLoss="58.33" rerouteNo="0" devices="tripinfo_straightE_22" vType="vehicleE_22" speedFactor="0.90" vaporized=""/>
    <tripinfo id="straightW_25" depart="12.00" departLane="edgeW_O_4" departPos="4.94" departSpeed="0.00" departDelay="0.00" arrival="168.00" arrivalLane="edgeE_I_2" arrivalPos="679.30" arrivalSpeed="16.39" duration="156.00" routeLength="1295.06" waitingTime="46.00" waitingCount="1" stopTime="0.00" timeLoss="63.19" rerouteNo="0" devices="tripinfo_straightW_25" vType="vehicleW_25" speedFactor="0.94" vaporized=""/>
    <tripinfo id="straightW_6" depart="2.00" departLane="edgeW_O_2" departPos="4.51" departSpeed="0.00" departDelay="0.00" arrival="169.00" arrivalLane="edgeE_I_1" arrivalPos="679.30" arrivalSpeed="16.83" duration="167.00" routeLength="1295.49" waitingTime="56.00" waitingCount="1" stopTime="0.00" timeLoss="72.72" rerouteNo="0" devices="tripinfo_straightW_6" vType="vehicleW_6" speedFactor="0.93" vaporized=""/>
    <tripinfo id="straightE_35" depart="18.00" departLane="edgeE_O_2" departPos="5.03" departSpeed="0.00" departDelay="3.00" arrival="169.00" arrivalLane="edgeW_I_1" arrivalPos="579.30" arrivalSpeed="17.04" duration="151.00" routeLength="1294.97" waitingTime="42.00" waitingCount="1" stopTime="0.00" timeLoss="59.94" rerouteNo="0" devices="tripinfo_straightE_35" vType="vehicleE_35" speedFactor="1.00" vaporized=""/>
    <tripinfo id="straightE_60" depart="29.00" departLane="edgeE_O_2" departPos="4.82" departSpeed="0.00" departDelay="2.00" arrival="169.00" arrivalLane="edgeW_I_3" arrivalPos="579.30" arrivalSpeed="19.53" duration="140.00" routeLength="1295.17" waitingTime="37.00" waitingCount="1" stopTime="0.00" timeLoss="55.54" rerouteNo="0" devices="tripinfo_straightE_60" vType="vehicleE_60" speedFactor="1.07" vaporized=""/>
    <tripinfo id="straightE_78" depart="42.00" departLane="edgeE_O_3" departPos="5.43" departSpeed="0.00" departDelay="0.00" arrival="169.00" arrivalLane="edgeW_I_4" arrivalPos="579.30" arrivalSpeed="20.61" duration="127.00" routeLength="1294.57" waitingTime="31.00" waitingCount="1" stopTime="0.00" timeLoss="47.05" rerouteNo="0" devices="tripinfo_straightE_78" vType="vehicleE_78" speedFactor="1.13" vaporized=""/>
    <tripinfo id="straightW_84" depart="48.00" departLane="edgeW_O_3" departPos="4.71" departSpeed="0.00" departDelay="0.00" arrival="169.00" arrivalLane="edgeE_I_4" arrivalPos="679.30" arrivalSpeed="19.52" duration="121.00" routeLength="1295.29" waitingTime="22.00" waitingCount="1" stopTime="0.00" timeLoss="39.16" rerouteNo="0" devices="tripinfo_straightW_84" vType="vehicleW_84" speedFactor="1.06" vaporized=""/>
    <tripinfo id="straightE_47" depart="23.00" departLane="edgeE_O_2" departPos="5.38" departSpeed="0.00" departDelay="0.00" arrival="171.00" arrivalLane="edgeW_I_2" arrivalPos="579.30" arrivalSpeed="21.05" duration="148.00" routeLength="1294.62" waitingTime="37.00" waitingCount="1" stopTime="0.00" timeLoss="68.33" rerouteNo="0" devices="tripinfo_straightE_47" vType="vehicleE_47" speedFactor="1.14" vaporized=""/>
    <tripinfo id="straightE_62" depart="31.00" departLane="edgeE_O_2" departPos="4.07" departSpeed="0.00" departDelay="3.00" arrival="171.00" arrivalLane="edgeW_I_3" arrivalPos="579.30" arrivalSpeed="20.08" duration="140.00" routeLength="1295.93" waitingTime="37.00" waitingCount="1" stopTime="0.00" timeLoss="58.52" rerouteNo="0" devices="tripinfo_straightE_62" vType="vehicleE_62" speedFactor="1.11" vaporized=""/>