<?xml version="1.0" encoding="UTF-8"?>

<!-- generated on 2021-10-23 04:06:19 by Eclipse SUMO sumo Version 1.10.0
<configuration xmlns:xsi="http://www.w3.org/2001/XMLSchema-instance" xsi:noNamespaceSchemaLocation="http://sumo.dlr.de/xsd/sumoConfiguration.xsd">

    <input>
        <net-file value="data8/cross.net.xml"/>
        <route-files value="data8/cross.rou.xml"/>
        <additional-files value="data8/cross.tls.xml"/>
    </input>

    <output>
        <tripinfo-output value="data8/tripinfo.xml"/>
        <tripinfo-output.write-unfinished value="true"/>
    </output>

    <time>
        <begin value="0"/>
        <step-length value="1"/>
    </time>

    <processing>
        <threads value="5"/>
        <time-to-teleport value="-1"/>
    </processing>

    <report>
        <verbose value="true"/>
        <no-warnings value="true"/>
        <no-step-log value="true"/>
    </report>

    <traci_server>
        <remote-port value="54656"/>
    </traci_server>

    <gui_only>
        <gui-settings-file value="data8/viewsettings.xml"/>
        <tracker-interval value="1"/>
    </gui_only>

</configuration>
-->

<tripinfos xmlns:xsi="http://www.w3.org/2001/XMLSchema-instance" xsi:noNamespaceSchemaLocation="http://sumo.dlr.de/xsd/tripinfo_file.xsd">
    <tripinfo id="straightS_0" depart="0.00" departLane="edgeS_O_1" departPos="4.37" departSpeed="0.00" departDelay="0.00" arrival="65.00" arrivalLane="edgeN_I_1" arrivalPos="582.50" arrivalSpeed="17.57" duration="65.00" routeLength="1095.63" waitingTime="0.00" waitingCount="0" stopTime="0.00" timeLoss="4.80" rerouteNo="0" devices="tripinfo_straightS_0" vType="vehicleS_0" speedFactor="1.07" vaporized=""/>
    <tripinfo id="straightN_4" depart="5.00" departLane="edgeN_O_1" departPos="4.49" departSpeed="0.00" departDelay="0.00" arrival="75.00" arrivalLane="edgeS_I_1" arrivalPos="482.50" arrivalSpeed="16.97" duration="70.00" routeLength="1095.51" waitingTime="0.00" waitingCount="0" stopTime="0.00" timeLoss="7.21" rerouteNo="0" devices="tripinfo_straightN_4" vType="vehicleN_4" speedFactor="1.03" vaporized=""/>
    <tripinfo id="straightS_10" depart="9.00" departLane="edgeS_O_1" departPos="5.31" departSpeed="0.00" departDelay="0.00" arrival="75.00" arrivalLane="edgeN_I_1" arrivalPos="582.50" arrivalSpeed="17.10" duration="66.00" routeLength="1094.69" waitingTime="0.00" waitingCount="0" stopTime="0.00" timeLoss="6.06" rerouteNo="0" devices="tripinfo_straightS_10" vType="vehicleS_10" speedFactor="1.08" vaporized=""/>
    <tripinfo id="straightN_7" depart="7.00" departLane="edgeN_O_2" departPos="5.34" departSpeed="0.00" departDelay="0.00" arrival="80.00" arrivalLane="edgeS_I_2" arrivalPos="482.50" arrivalSpeed="15.65" duration="73.00" routeLength="1094.66" waitingTime="0.00" waitingCount="0" stopTime="0.00" timeLoss="6.26" rerouteNo="0" devices="tripinfo_straightN_7" vType="vehicleN_7" speedFactor="0.97" vaporized=""/>
    <tripinfo id="straightN_2" depart="1.00" departLane="edgeN_O_2" departPos="5.41" departSpeed="0.00" departDelay="0.00" arrival="81.00" arrivalLane="edgeS_I_1" arrivalPos="482.50" arrivalSpeed="14.82" duration="80.00" routeLength="1094.59" waitingTime="0.00" waitingCount="0" stopTime="0.00" timeLoss="7.35" rerouteNo="0" devices="tripinfo_straightN_2" vType="vehicleN_2" speedFactor="0.89" vaporized=""/>
    <tripinfo id="straightN_11" depart="11.00" departLane="edgeN_O_1" departPos="5.74" departSpeed="0.00" departDelay="1.00" arrival="81.00" arrivalLane="edgeS_I_2" arrivalPos="482.50" arrivalSpeed="17.59" duration="70.00" routeLength="1094.26" waitingTime="0.00" waitingCount="0" stopTime="0.00" timeLoss="9.02" rerouteNo="0" devices="tripinfo_straightN_11" vType="vehicleN_11" speedFactor="1.06" vaporized=""/>
    <tripinfo id="straightN_5" depart="8.00" departLane="edgeN_O_1" departPos="5.16" departSpeed="0.00" departDelay="2.00" arrival="82.00" arrivalLane="edgeS_I_1" arrivalPos="482.50" arrivalSpeed="16.95" duration="74.00" routeLength="1094.84" waitingTime="0.00" waitingCount="0" stopTime="0.00" timeLoss="15.84" rerouteNo="0" devices="tripinfo_straightN_5" vType="vehicleN_5" speedFactor="1.11" vaporized=""/>
    <tripinfo id="straightS_25" depart="20.00" departLane="edgeS_O_2" departPos="4.35" departSpeed="0.00" departDelay="0.00" arrival="82.00" arrivalLane="edgeN_I_2" arrivalPos="582.50" arrivalSpeed="19.24" duration="62.00" routeLength="1095.65" waitingTime="0.00" waitingCount="0" stopTime="0.00" timeLoss="6.50" rerouteNo="0" devices="tripinfo_straightS_25" vType="vehicleS_25" speedFactor="1.17" vaporized=""/>
    <tripinfo id="straightS_28" depart="22.00" departLane="edgeS_O_1" departPos="5.60" departSpeed="0.00" departDelay="0.00" arrival="85.00" arrivalLane="edgeN_I_2" arrivalPos="582.50" arrivalSpeed="18.82" duration="63.00" routeLength="1094.40" waitingTime="0.00" waitingCount="0" stopTime="0.00" timeLoss="6.19" rerouteNo="0" devices="tripinfo_straightS_28" vType="vehicleS_28" speedFactor="1.14" vaporized=""/>
    <tripinfo id="straightS_13" depart="12.00" departLane="edgeS_O_1" departPos="5.52" departSpeed="0.00" departDelay="0.00" arrival="86.00" arrivalLane="edgeN_I_1" arrivalPos="582.50" arrivalSpeed="15.13" duration="74.00" routeLength="1094.48" waitingTime="0.00" waitingCount="0" stopTime="0.00" timeLoss="5.76" rerouteNo="0" devices="tripinfo_straightS_13" vType="vehicleS_13" speedFactor="0.94" vaporized=""/>
    <tripinfo id="straightN_19" depart="17.00" departLane="edgeN_O_1" departPos="4.38" departSpeed="0.00" departDelay="0.00" arrival="87.00" arrivalLane="edgeS_I_1" arrivalPos="482.50" arrivalSpeed="16.60" duration="70.00" routeLength="1095.62" waitingTime="0.00" waitingCount="0" stopTime="0.00" timeLoss="5.81" rerouteNo="0" devices="tripinfo_straightN_19" vType="vehicleN_19" speedFactor="1.01" vaporized=""/>
    <tripinfo id="straightN_16" depart="14.00" departLane="edgeN_O_1" departPos="4.10" departSpeed="0.00" departDelay="0.00" arrival="89.00" arrivalLane="edgeS_I_1" arrivalPos="482.50" arrivalSpeed="16.10" duration="75.00" routeLength="1095.90" waitingTime="0.00" waitingCount="0" stopTime="0.00" timeLoss="6.45" rerouteNo="0" devices="tripinfo_straightN_16" vType="vehicleN_16" speedFactor="0.94" vaporized=""/>
    <tripinfo id="straightN_33" depart="26.00" departLane="edgeN_O_1" departPos="5.22" departSpeed="0.00" departDelay="0.00" arrival="90.00" arrivalLane="edgeS_I_2" arrivalPos="482.50" arrivalSpeed="17.94" duration="64.00" routeLength="1094.78" waitingTime="0.00" waitingCount="0" stopTime="0.00" timeLoss="6.17" rerouteNo="0" devices="tripinfo_straightN_33" vType="vehicleN_33" speedFactor="1.12" vaporized=""/>
    <tripinfo id="straightS_22" depart="19.00" departLane="edgeS_O_1" departPos="4.58" departSpeed="0.00" departDelay="0.00" arrival="91.00" arrivalLane="edgeN_I_2" arrivalPos="582.50" arrivalSpeed="16.07" duration="72.00" routeLength="1095.42" waitingTime="0.00" waitingCount="0" stopTime="0.00" timeLoss="7.14" rerouteNo="0" devices="tripinfo_straightS_22" vType="vehicleS_22" speedFactor="1.00" vaporized=""/>
    <tripinfo id="straightS_15" depart="15.00" departLane="edgeS_O_1" departPos="5.72" departSpeed="0.00" departDelay="2.00" arrival="92.00" arrivalLane="edgeN_I_1" arrivalPos="582.50" arrivalSpeed="14.68" duration="77.00" routeLength="1094.28" waitingTime="0.00" waitingCount="0" stopTime="0.00" timeLoss="6.03" rerouteNo="0" devices="tripinfo_straightS_15" vType="vehicleS_15" speedFactor="0.91" vaporized=""/>
    <tripinfo id="straightN_34" depart="29.00" departLane="edgeN_O_1" departPos="4.44" departSpeed="0.00" departDelay="2.00" arrival="92.00" arrivalLane="edgeS_I_2" arrivalPos="482.50" arrivalSpeed="17.91" duration="63.00" routeLength="1095.56" waitingTime="0.00" waitingCount="0" stopTime="0.00" timeLoss="5.86" rerouteNo="0" devices="tripinfo_straightN_34" vType="vehicleN_34" speedFactor="1.13" vaporized=""/>
    <tripinfo id="straightN_24" depart="20.00" departLane="edgeN_O_1" departPos="5.46" departSpeed="0.00" departDelay="0.00" arrival="95.00" arrivalLane="edgeS_I_1" arrivalPos="482.50" arrivalSpeed="14.47" duration="75.00" routeLength="1094.55" waitingTime="0.00" waitingCount="0" stopTime="0.00" timeLoss="6.30" rerouteNo="0" devices="tripinfo_straightN_24" vType="vehicleN_24" speedFactor="0.94" vaporized=""/>
    <tripinfo id="straightS_30" depart="23.00" departLane="edgeS_O_2" departPos="5.14" departSpeed="0.00" departDelay="0.00" arrival="95.00" arrivalLane="edgeN_I_1" arrivalPos="582.50" arrivalSpeed="15.98" duration="72.00" routeLength="1094.86" waitingTime="0.00" waitingCount="0" stopTime="0.00" timeLoss="5.77" rerouteNo="0" devices="tripinfo_straightS_30" vType="vehicleS_30" speedFactor="0.98" vaporized=""/>
    <tripinfo id="straightS_40" depart="31.00" departLane="edgeS_O_1" departPos="5.39" departSpeed="0.00" departDelay="0.00" arrival="101.00" arrivalLane="edgeN_I_1" arrivalPos="582.50" arrivalSpeed="17.03" duration="70.00" routeLength="1094.61" waitingTime="0.00" waitingCount="0" stopTime="0.00" timeLoss="6.66" rerouteNo="0" devices="tripinfo_straightS_40" vType="vehicleS_40" speedFactor="1.02" vaporized=""/>
    <tripinfo id="straightS_48" depart="38.00" departLane="edgeS_O_2" departPos="4.65" departSpeed="0.00" departDelay="0.00" arrival="102.00" arrivalLane="edgeN_I_2" arrivalPos="582.50" arrivalSpeed="18.17" duration="64.00" routeLength="1095.35" waitingTime="0.00" waitingCount="0" stopTime="0.00" timeLoss="7.61" rerouteNo="0" devices="tripinfo_straightS_48" vType="vehicleS_48" speedFactor="1.14" vaporized=""/>
    <tripinfo id="straightS_36" depart="28.00" departLane="edgeS_O_2" departPos="4.46" departSpeed="0.00" departDelay="0.00" arrival="103.00" arrivalLane="edgeN_I_1" arrivalPos="582.50" arrivalSpeed="15.46" duration="75.00" routeLength="1095.54" waitingTime="0.00" waitingCount="0" stopTime="0.00" timeLoss="5.91" rerouteNo="0" devices="tripinfo_straightS_36" vType="vehicleS_36" speedFactor="0.93" vaporized=""/>
    <tripinfo id="straightN_41" depart="34.00" departLane="edgeN_O_1" departPos="4.17" departSpeed="0.00" departDelay="1.00" arrival="103.00" arrivalLane="edgeS_I_1" arrivalPos="482.50" arrivalSpeed="17.34" duration="69.00" routeLength="1095.83" waitingTime="0.00" waitingCount="0" stopTime="0.00" timeLoss="5.81" rerouteNo="0" devices="tripinfo_straightN_41" vType="vehicleN_41" speedFactor="1.02" vaporized=""/>
    <tripinfo id="straightS_45" depart="37.00" departLane="edgeS_O_1" departPos="5.26" departSpeed="0.00" departDelay="2.00" arrival="109.00" arrivalLane="edgeN_I_1" arrivalPos="582.50" arrivalSpeed="16.37" duration="72.00" routeLength="1094.74" waitingTime="0.00" waitingCount="0" stopTime="0.00" timeLoss="6.31" rerouteNo="0" devices="tripinfo_straightS_45" vType="vehicleS_45" speedFactor="0.98" vaporized=""/>
    <tripinfo id="straightN_46" depart="39.00" departLane="edgeN_O_1" departPos="3.98" departSpeed="0.00" departDelay="3.00" arrival="110.00" arrivalLane="edgeS_I_1" arrivalPos="482.50" arrivalSpeed="16.94" duration="71.00" routeLength="1096.02" waitingTime="0.00" waitingCount="0" stopTime="0.00" timeLoss="7.02" rerouteNo="0" devices="tripinfo_straightN_46" vType="vehicleN_46" speedFactor="1.01" vaporized=""/>
    <tripinfo id="straightS_42" depart="34.00" departLane="edgeS_O_1" departPos="4.59" departSpeed="0.00" departDelay="1.00" arrival="113.00" arrivalLane="edgeN_I_1" arrivalPos="582.50" arrivalSpeed="14.70" duration="79.00" routeLength="1095.40" waitingTime="0.00" waitingCount="0" stopTime="0.00" timeLoss="10.36" rerouteNo="0" devices="tripinfo_straightS_42" vType="vehicleS_42" speedFactor="0.94" vaporized=""/>
    <tripinfo id="straightN_35" depart="31.00" departLane="edgeN_O_1" departPos="4.44" departSpeed="0.00" departDelay="3.00" arrival="116.00" arrivalLane="edgeS_I_1" arrivalPos="482.50" arrivalSpeed="13.90" duration="85.00" routeLength="1095.56" waitingTime="0.00" waitingCount="0" stopTime="0.00" timeLoss="7.08" rerouteNo="0" devices="tripinfo_straightN_35" vType="vehicleN_35" speedFactor="0.83" vaporized=""/>
    <tripinfo id="straightS_49" depart="40.00" departLane="edgeS_O_1" departPos="5.05" departSpeed="0.00" departDelay="1.00" arrival="116.00" arrivalLane="edgeN_I_2" arrivalPos="582.50" arrivalSpeed="15.58" duration="76.00" routeLength="1094.95" waitingTime="0.00" waitingCount="0" stopTime="0.00" timeLoss="6.87" rerouteNo="0" devices="tripinfo_straightS_49" vType="vehicleS_49" speedFactor="0.93" vaporized=""/>
    <tripinfo id="straightS_39" depart="30.00" departLane="edgeS_O_2" departPos="4.16" departSpeed="0.00" departDelay="0.00" arrival="120.00" arrivalLane="edgeN_I_1" arrivalPos="582.50" arrivalSpeed="12.08" duration="90.00" routeLength="1095.84" waitingTime="1.00" waitingCount="1" stopTime="0.00" timeLoss="8.80" rerouteNo="0" devices="tripinfo_straightS_39" vType="vehicleS_39" speedFactor="0.79" vaporized=""/>
    <tripinfo id="straightN_44" depart="36.00" departLane="edgeN_O_1" departPos="4.44" departSpeed="0.00" departDelay="1.00" arrival="120.00" arrivalLane="edgeS_I_1" arrivalPos="482.50" arrivalSpeed="13.36" duration="84.00" routeLength="1095.56" waitingTime="0.00" waitingCount="0" stopTime="0.00" timeLoss="7.40" rerouteNo="0" devices="tripinfo_straightN_44" vType="vehicleN_44" speedFactor="0.85" vaporized=""/>
    <tripinfo id="straightS_74" depart="61.00" departLane="edgeS_O_2" departPos="4.84" departSpeed="0.00" departDelay="0.00" arrival="122.00" arrivalLane="edgeN_I_2" arrivalPos="582.50" arrivalSpeed="18.86" duration="61.00" routeLength="1095.16" waitingTime="0.00" waitingCount="0" stopTime="0.00" timeLoss="5.83" rerouteNo="0" devices="tripinfo_straightS_74" vType="vehicleS_74" speedFactor="1.17" vaporized=""/>
    <tripinfo id="straightS_56" depart="48.00" departLane="edgeS_O_2" departPos="5.20" departSpeed="0.00" departDelay="0.00" arrival="123.00" arrivalLane="edgeN_I_1" arrivalPos="582.50" arrivalSpeed="14.90" duration="75.00" routeLength="1094.80" waitingTime="0.00" waitingCount="0" stopTime="0.00" timeLoss="6.68" rerouteNo="0" devices="tripinfo_straightS_56" vType="vehicleS_56" speedFactor="0.94" vaporized=""/>
    <tripinfo id="straightS_64" depart="53.00" departLane="edgeS_O_1" departPos="5.67" departSpeed="0.00" departDelay="0.00" arrival="126.00" arrivalLane="edgeN_I_1" arrivalPos="582.50" arrivalSpeed="16.50" duration="73.00" routeLength="1094.33" waitingTime="0.00" waitingCount="0" stopTime="0.00" timeLoss="6.97" rerouteNo="0" devices="tripinfo_straightS_64" vType="vehicleS_64" speedFactor="0.98" vaporized=""/>
    <tripinfo id="straightN_58" depart="50.00" departLane="edgeN_O_2" departPos="5.31" departSpeed="0.00" departDelay="0.00" arrival="129.00" arrivalLane="edgeS_I_2" arrivalPos="482.50" arrivalSpeed="15.04" duration="79.00" routeLength="1094.69" waitingTime="0.00" waitingCount="0" stopTime="0.00" timeLoss="7.11" rerouteNo="0" devices="tripinfo_straightN_58" vType="vehicleN_58" speedFactor="0.91" vaporized=""/>
    <tripinfo id="straightS_78" depart="64.00" departLane="edgeS_O_1" departPos="4.38" departSpeed="0.00" departDelay="0.00" arrival="129.00" arrivalLane="edgeN_I_2" arrivalPos="582.50" arrivalSpeed="18.58" duration="65.00" routeLength="1095.62" waitingTime="0.00" waitingCount="0" stopTime="0.00" timeLoss="6.59" rerouteNo="0" devices="tripinfo_straightS_78" vType="vehicleS_78" speedFactor="1.12" vaporized=""/>
    <tripinfo id="straightN_55" depart="48.00" departLane="edgeN_O_1" departPos="4.48" departSpeed="0.00" departDelay="0.00" arrival="130.00" arrivalLane="edgeS_I_1" arrivalPos="482.50" arrivalSpeed="14.05" duration="82.00" routeLength="1095.52" waitingTime="0.00" waitingCount="0" stopTime="0.00" timeLoss="6.45" rerouteNo="0" devices="tripinfo_straightN_55" vType="vehicleN_55" speedFactor="0.86" vaporized=""/>
    <tripinfo id="straightN_63" depart="53.00" departLane="edgeN_O_2" departPos="4.01" departSpeed="0.00" departDelay="0.00" arrival="130.00" arrivalLane="edgeS_I_2" arrivalPos="482.50" arrivalSpeed="14.98" duration="77.00" routeLength="1095.99" waitingTime="0.00" waitingCount="0" stopTime="0.00" timeLoss="7.63" rerouteNo="0" devices="tripinfo_straightN_63" vType="vehicleN_63" speedFactor="0.93" vaporized=""/>
    <tripinfo id="straightN_57" depart="51.00" departLane="edgeN_O_1" departPos="4.67" departSpeed="0.00" departDelay="2.00" arrival="131.00" arrivalLane="edgeS_I_1" arrivalPos="482.50" arrivalSpeed="17.46" duration="80.00" routeLength="1095.34" waitingTime="0.00" waitingCount="0" stopTime="0.00" timeLoss="21.71" rerouteNo="0" devices="tripinfo_straightN_57" vType="vehicleN_57" speedFactor="1.11" vaporized=""/>
    <tripinfo id="straightS_70" depart="57.00" departLane="edgeS_O_2" departPos="5.10" departSpeed="0.00" departDelay="0.00" arrival="131.00" arrivalLane="edgeN_I_1" arrivalPos="582.50" arrivalSpeed="15.79" duration="74.00" routeLength="1094.90" waitingTime="0.00" waitingCount="0" stopTime="0.00" timeLoss="6.54" rerouteNo="0" devices="tripinfo_straightS_70" vType="vehicleS_70" speedFactor="0.96" vaporized=""/>
    <tripinfo id="leftE_1" depart="0.00" departLane="edgeE_O_4" departPos="4.39" departSpeed="0.00" departDelay="0.00" arrival="140.00" arrivalLane="edgeS_I_2" arrivalPos="482.50" arrivalSpeed="19.90" duration="140.00" routeLength="892.86" waitingTime="85.00" waitingCount="1" stopTime="0.00" timeLoss="98.14" rerouteNo="0" devices="tripinfo_leftE_1" vType="vehicleE_1" speedFactor="1.22" vaporized=""/>
    <tripinfo id="leftE_23" depart="19.00" departLane="edgeE_O_4" departPos="4.79" departSpeed="0.00" departDelay="0.00" arrival="147.00" arrivalLane="edgeS_I_2" arrivalPos="482.50" arrivalSpeed="21.29" duration="128.00" routeLength="892.46" waitingTime="61.00" waitingCount="1" stopTime="0.00" timeLoss="87.71" rerouteNo="0" devices="tripinfo_leftE_23" vType="vehicleE_23" speedFactor="1.28" vaporized=""/>
    <tripinfo id="uturnW_3" depart="1.00" departLane="edgeW_O_4" departPos="4.57" departSpeed="0.00" departDelay="0.00" arrival="154.00" arrivalLane="edgeW_I_2" arrivalPos="688.90" arrivalSpeed="18.98" duration="153.00" routeLength="1377.90" waitingTime="64.00" waitingCount="1" stopTime="0.00" timeLoss="80.80" rerouteNo="0" devices="tripinfo_uturnW_3" vType="vehicleW_3" speedFactor="1.02" vaporized=""/>
    <tripinfo id="leftE_29" depart="22.00" departLane="edgeE_O_4" departPos="5.50" departSpeed="0.00" departDelay="0.00" arrival="154.00" arrivalLane="edgeS_I_2" arrivalPos="482.50" arrivalSpeed="16.77" duration="132.00" routeLength="891.75" waitingTime="61.00" waitingCount="1" stopTime="0.00" timeLoss="80.28" rerouteNo="0" devices="tripinfo_leftE_29" vType="vehicleE_29" speedFactor="1.00" vaporized=""/>
    <tripinfo id="uturnE_69" depart="55.00" departLane="edgeE_O_4" departPos="5.36" departSpeed="0.00" departDelay="0.00" arrival="154.00" arrivalLane="edgeE_I_4" arrivalPos="388.90" arrivalSpeed="18.70" duration="99.00" routeLength="777.11" waitingTime="38.00" waitingCount="1" stopTime="0.00" timeLoss="56.97" rerouteNo="0" devices="tripinfo_uturnE_69" vType="vehicleE_69" speedFactor="1.02" vaporized=""/>
    <tripinfo id="leftE_18" depart="16.00" departLane="edgeE_O_4" departPos="4.01" departSpeed="0.00" departDelay="0.00" arrival="155.00" arrivalLane="edgeS_I_1" arrivalPos="482.50" arrivalSpeed="12.87" duration="139.00" routeLength="893.24" waitingTime="65.00" waitingCount="1" stopTime="0.00" timeLoss="76.00" rerouteNo="0" devices="tripinfo_leftE_18" vType="vehicleE_18" speedFactor="0.81" vaporized=""/>
    <tripinfo id="leftW_21" depart="18.00" departLane="edgeW_O_4" departPos="4.74" departSpeed="0.00" departDelay="0.00" arrival="157.00" arrivalLane="edgeN_I_1" arrivalPos="582.50" arrivalSpeed="17.48" duration="139.00" routeLength="1292.51" waitingTime="53.00" waitingCount="1" stopTime="0.00" timeLoss="67.93" rerouteNo="0" devices="tripinfo_leftW_21" vType="vehicleW_21" speedFactor="1.03" vaporized=""/>
    <tripinfo id="leftE_38" depart="29.00" departLane="edgeE_O_4" departPos="4.52" departSpeed="0.00" departDelay="0.00" arrival="158.00" arrivalLane="edgeS_I_1" arrivalPos="482.50" arrivalSpeed="15.72" duration="129.00" routeLength="892.73" waitingTime="59.00" waitingCount="1" stopTime="0.00" timeLoss="73.36" rerouteNo="0" devices="tripinfo_leftE_38" vType="vehicleE_38" speedFactor="0.92" vaporized=""/>
    <tripinfo id="leftW_9" depart="8.00" departLane="edgeW_O_4" departPos="4.97" departSpeed="0.00" departDelay="0.00" arrival="159.00" arrivalLane="edgeN_I_1" arrivalPos="582.50" arrivalSpeed="14.88" duration="151.00" routeLength="1292.28" waitingTime="56.00" waitingCount="1" stopTime="0.00" timeLoss="71.04" rerouteNo="0" devices="tripinfo_leftW_9" vType="vehicleW_9" speedFactor="0.91" vaporized=""/>
    <tripinfo id="uturnE_72" depart="58.00" departLane="edgeE_O_4" departPos="4.47" departSpeed="0.00" departDelay="0.00" arrival="159.00" arrivalLane="edgeE_I_3" arrivalPos="388.90" arrivalSpeed="17.87" duration="101.00" routeLength="778.00" waitingTime="36.00" waitingCount="1" stopTime="0.00" timeLoss="56.42" rerouteNo="0" devices="tripinfo_uturnE_72" vType="vehicleE_72" speedFactor="0.96" vaporized=""/>
    <tripinfo id="straightW_12" depart="10.00" departLane="edgeW_O_2" departPos="5.30" departSpeed="0.00" departDelay="0.00" arrival="160.00" arrivalLane="edgeE_I_2" arrivalPos="388.90" arrivalSpeed="17.77" duration="150.00" routeLength="1094.70" waitingTime="82.00" waitingCount="1" stopTime="0.00" timeLoss="98.10" rerouteNo="0" devices="tripinfo_straightW_12" vType="vehicleW_12" speedFactor="1.11" vaporized=""/>
    <tripinfo id="straightW_20" depart="17.00" departLane="edgeW_O_3" departPos="4.93" departSpeed="0.00" departDelay="0.00" arrival="160.00" arrivalLane="edgeE_I_3" arrivalPos="388.90" arrivalSpeed="17.87" duration="143.00" routeLength="1095.07" waitingTime="72.00" waitingCount="1" stopTime="0.00" timeLoss="85.95" rerouteNo="0" devices="tripinfo_straightW_20" vType="vehicleW_20" speedFactor="1.01" vaporized=""/>
    <tripinfo id="leftE_51" depart="41.00" departLane="edgeE_O_4" departPos="5.72" departSpeed="0.00" departDelay="0.00" arrival="160.00" arrivalLane="edgeS_I_1" arrivalPos="482.50" arrivalSpeed="16.03" duration="119.00" routeLength="891.53" waitingTime="50.00" waitingCount="1" stopTime="0.00" timeLoss="67.40" rerouteNo="0" devices="tripinfo_leftE_51" vType="vehicleE_51" speedFactor="1.00" vaporized=""/>
    <tripinfo id="leftE_54" depart="47.00" departLane="edgeE_O_4" departPos="5.10" departSpeed="0.00" departDelay="0.00" arrival="160.00" arrivalLane="edgeS_I_2" arrivalPos="482.50" arrivalSpeed="16.59" duration="113.00" routeLength="892.15" waitingTime="44.00" waitingCount="1" stopTime="0.00" timeLoss="63.04" rerouteNo="0" devices="tripinfo_leftE_54" vType="vehicleE_54" speedFactor="1.01" vaporized=""/>
    <tripinfo id="straightW_6" depart="6.00" departLane="edgeW_O_3" departPos="4.26" departSpeed="0.00" departDelay="0.00" arrival="161.00" arrivalLane="edgeE_I_1" arrivalPos="388.90" arrivalSpeed="18.15" duration="155.00" routeLength="1095.74" waitingTime="81.00" waitingCount="1" stopTime="0.00" timeLoss="95.87" rerouteNo="0" devices="tripinfo_straightW_6" vType="vehicleW_6" speedFactor="0.98" vaporized=""/>
    <tripinfo id="straightW_32" depart="24.00" departLane="edgeW_O_3" departPos="4.97" departSpeed="0.00" departDelay="0.00" arrival="161.00" arrivalLane="edgeE_I_4" arrivalPos="388.90" arrivalSpeed="21.19" duration="137.00" routeLength="1095.03" waitingTime="67.00" waitingCount="1" stopTime="0.00" timeLoss="84.48" rerouteNo="0" devices="tripinfo_straightW_32" vType="vehicleW_32" speedFactor="1.11" vaporized=""/>
    <tripinfo id="straightW_31" depart="23.00" departLane="edgeW_O_2" departPos="4.40" departSpeed="0.00" departDelay="0.00" arrival="163.00" arrivalLane="edgeE_I_3" arrivalPos="388.90" arrivalSpeed="19.30" duration="140.00" routeLength="1095.60" waitingTime="68.00" waitingCount="2" stopTime="0.00" timeLoss="84.63" rerouteNo="0" devices="tripinfo_straightW_31" vType="vehicleW_31" speedFactor="1.05" vaporized=""/>
    <tripinfo id="straightW_14" depart="12.00" departLane="edgeW_O_1" departPos="4.93" departSpeed="0.00" departDelay="0.00" arrival="164.00" arrivalLane="edgeE_I_2" arrivalPos="388.90" arrivalSpeed="16.08" duration="152.00" routeLength="1095.07" waitingTime="73.00" waitingCount="1" stopTime="0.00" timeLoss="87.05" rerouteNo="0" devices="tripinfo_straightW_14" vType="vehicleW_14" speedFactor="0.90" vaporized=""/>
    <tripinfo id="straightW_47" depart="36.00" departLane="edgeW_O_3" departPos="4.56" departSpeed="0.00" departDelay="0.00" arrival="165.00" arrivalLane="edgeE_I_4" arrivalPos="388.90" arrivalSpeed="19.01" duration="129.00" routeLength="1095.44" waitingTime="53.00" waitingCount="1" stopTime="0.00" timeLoss="71.60" rerouteNo="0" devices="tripinfo_straightW_47" vType="vehicleW_47" speedFactor="1.01" vaporized=""/>
    <tripinfo id="straightW_8" depart="7.00" departLane="edgeW_O_2" departPos="4.98" departSpeed="0.00" departDelay="0.00" arrival="166.00" arrivalLane="edgeE_I_1" arrivalPos="388.90" arrivalSpeed="15.94" duration="159.00" routeLength="1095.02" waitingTime="77.00" waitingCount="1" stopTime="0.00" timeLoss="91.10" rerouteNo="0" devices="tripinfo_straightW_8" vType="vehicleW_8" speedFactor="0.86" vaporized=""/>
    <tripinfo id="straightW_37" depart="28.00" departLane="edgeW_O_3" departPos="5.22" departSpeed="0.00" departDelay="0.00" arrival="166.00" arrivalLane="edgeE_I_2" arrivalPos="388.90" arrivalSpeed="17.46" duration="138.00" routeLength="1094.78" waitingTime="56.00" waitingCount="2" stopTime="0.00" timeLoss="75.80" rerouteNo="0" devices="tripinfo_straightW_37" vType="vehicleW_37" speedFactor="0.93" vaporized=""/>
    <tripinfo id="straightW_61" depart="52.00" departLane="edgeW_O_2" departPos="5.51" departSpeed="0.00" departDelay="0.00" arrival="166.00" arrivalLane="edgeE_I_3" arrivalPos="388.90" arrivalSpeed="19.97" duration="114.00" routeLength="1094.49" waitingTime="40.00" waitingCount="1" stopTime="0.00" timeLoss="59.16" rerouteNo="0" devices="tripinfo_straightW_61" vType="vehicleW_61" speedFactor="1.06" vaporized=""/>
    <tripinfo id="uturnW_50" depart="41.00" departLane="edgeW_O_4" departPos="4.39" departSpeed="0.00" departDelay="0.00" arrival="167.00" arrivalLane="edgeW_I_1" arrivalPos="688.90" arrivalSpeed="17.27" duration="126.00" routeLength="1378.08" waitingTime="28.00" waitingCount="1" stopTime="0.00" timeLoss="47.71" rerouteNo="0" devices="tripinfo_uturnW_50" vType="vehicleW_50" speedFactor="0.95" vaporized=""/>
    <tripinfo id="leftW_65" depart="53.00" departLane="edgeW_O_4" departPos="4.24" departSpeed="0.00" departDelay="0.00" arrival="167.00" arrivalLane="edgeN_I_1" arrivalPos="582.50" arrivalSpeed="16.03" duration="114.00" routeLength="1293.01" waitingTime="19.00" waitingCount="1" stopTime="0.00" timeLoss="37.33" rerouteNo="0" devices="tripinfo_leftW_65" vType="vehicleW_65" speedFactor="0.95" vaporized=""/>
    <tripinfo id="straightW_26" depart="20.00" departLane="edgeW_O_3" departPos="5.62" departSpeed="0.00" departDelay="0.00" arrival="168.00" arrivalLane="edgeE_I_1" arrivalPos="388.90" arrivalSpeed="15.28" duration="148.00" routeLength="1094.38" waitingTime="65.00" waitingCount="1" stopTime="0.00" timeLoss="80.51" rerouteNo="0" devices="tripinfo_straightW_26" vType="vehicleW_26" speedFactor="0.86" vaporized=""/>
    <tripinfo id="straightW_52" depart="42.00" departLane="edgeW_O_1" departPos="4.85" departSpeed="0.00" departDelay="0.00" arrival="168.00" arrivalLane="edgeE_I_3" arrivalPos="388.90" arrivalSpeed="17.78" duration="126.00" routeLength="1095.15" waitingTime="51.00" waitingCount="1" stopTime="0.00" timeLoss="65.42" rerouteNo="0" devices="tripinfo_straightW_52" vType="vehicleW_52" speedFactor="0.96" vaporized=""/>
    <tripinfo id="straightW_87" depart="77.00" departLane="edgeW_O_1" departPos="4.81" departSpeed="0.00" departDelay="0.00" arrival="168.00" arrivalLane="edgeE_I_2" arrivalPos="388.90" arrivalSpeed="17.49" duration="91.00" routeLength="1095.19" waitingTime="13.00" waitingCount="2" stopTime="0.00" timeLoss="32.70" rerouteNo="0" devices="tripinfo_straightW_87" vType="vehicleW_87" speedFactor="1.00" vaporized=""/>
    <tripinfo id="straightW_59" depart="51.00" departLane="edgeW_O_3" departPos="4.66" departSpeed="0.00" departDelay="0.00" arrival="169.00" arrivalLane="edgeE_I_1" arrivalPos="388.90" arrivalSpeed="18.29" duration="118.00" routeLength="1095.34" waitingTime="38.00" waitingCount="2" stopTime="0.00" timeLoss="64.31" rerouteNo="0" devices="tripinfo_straightW_59" vType="vehicleW_59" speedFactor="1.07" vaporized=""/>
    <tripinfo id="straightW_94" depart="88.00" departLane="edgeW_O_2" departPos="4.59" departSpeed="0.00" departDelay="0.00" arrival="169.00" arrivalLane="edgeE_I_4" arrivalPos="388.90" arrivalSpeed="18.62" duration="81.00" routeLength="1095.41" waitingTime="8.00" waitingCount="1" stopTime="0.00" timeLoss="22.16" rerouteNo="0" devices="tripinfo_straightW_94" vType="vehicleW_94" speedFactor="0.99" vaporized=""/>
    <tripinfo id="leftW_43" depart="33.00" departLane="edgeW_O_4" departPos="4.56" departSpeed="0.00" departDelay="0.00" arrival="170.00" arrivalLane="edgeN_I_1" arrivalPos="582.50" arrivalSpeed="12.89" duration="137.00" routeLength="1292.69" waitingTime="32.00" waitingCount="1" stopTime="0.00" timeLoss="45.69" rerouteNo="0" devices="tripinfo_leftW_43" vType="vehicleW_43" speedFactor="0.80" vaporized=""/>
    <tripinfo id="leftW_67" depart="56.00" departLane="edgeW_O_4" departPos="4.53" departSpeed="0.00" departDelay="2.00" arrival="170.00" arrivalLane="edgeN_I_2" arrivalPos="582.50" arrivalSpeed="15.97" duration="114.00" routeLength="1292.72" waitingTime="16.00" waitingCount="1" stopTime="0.00" timeLoss="36.45" rerouteNo="0" devices="tripinfo_leftW_67" vType="vehicleW_67" speedFactor="0.94" vaporized=""/>