<?xml version="1.0" encoding="UTF-8"?>

<!-- generated on 2021-10-23 05:40:46 by Eclipse SUMO sumo Version 1.10.0
<configuration xmlns:xsi="http://www.w3.org/2001/XMLSchema-instance" xsi:noNamespaceSchemaLocation="http://sumo.dlr.de/xsd/sumoConfiguration.xsd">

    <input>
        <net-file value="data8/cross.net.xml"/>
        <route-files value="data8/cross.rou.xml"/>
        <additional-files value="data8/cross.tls.xml"/>
    </input>

    <output>
        <tripinfo-output value="data8/tripinfo.xml"/>
        <tripinfo-output.write-unfinished value="true"/>
    </output>

    <time>
        <begin value="0"/>
        <step-length value="1"/>
    </time>

    <processing>
        <threads value="5"/>
        <time-to-teleport value="-1"/>
    </processing>

    <report>
        <verbose value="true"/>
        <no-warnings value="true"/>
        <no-step-log value="true"/>
    </report>

    <traci_server>
        <remote-port value="49293"/>
    </traci_server>

    <gui_only>
        <gui-settings-file value="data8/viewsettings.xml"/>
        <tracker-interval value="1"/>
    </gui_only>

</configuration>
-->

<tripinfos xmlns:xsi="http://www.w3.org/2001/XMLSchema-instance" xsi:noNamespaceSchemaLocation="http://sumo.dlr.de/xsd/tripinfo_file.xsd">
    <tripinfo id="straightS_0" depart="0.00" departLane="edgeS_O_1" departPos="4.39" departSpeed="0.00" departDelay="0.00" arrival="94.00" arrivalLane="edgeN_I_1" arrivalPos="992.10" arrivalSpeed="24.12" duration="94.00" routeLength="1695.61" waitingTime="0.00" waitingCount="0" stopTime="0.00" timeLoss="7.67" rerouteNo="0" devices="tripinfo_straightS_0" vType="vehicleS_0" speedFactor="1.09" vaporized=""/>
    <tripinfo id="straightS_14" depart="13.00" departLane="edgeS_O_2" departPos="4.04" departSpeed="0.00" departDelay="0.00" arrival="104.00" arrivalLane="edgeN_I_1" arrivalPos="992.10" arrivalSpeed="24.44" duration="91.00" routeLength="1695.96" waitingTime="0.00" waitingCount="0" stopTime="0.00" timeLoss="7.32" rerouteNo="0" devices="tripinfo_straightS_14" vType="vehicleS_14" speedFactor="1.13" vaporized=""/>
    <tripinfo id="straightS_6" depart="6.00" departLane="edgeS_O_1" departPos="4.28" departSpeed="0.00" departDelay="0.00" arrival="110.00" arrivalLane="edgeN_I_1" arrivalPos="992.10" arrivalSpeed="22.67" duration="104.00" routeLength="1695.72" waitingTime="0.00" waitingCount="0" stopTime="0.00" timeLoss="7.94" rerouteNo="0" devices="tripinfo_straightS_6" vType="vehicleS_6" speedFactor="0.98" vaporized=""/>
    <tripinfo id="straightN_13" depart="14.00" departLane="edgeN_O_2" departPos="5.44" departSpeed="0.00" departDelay="2.00" arrival="114.00" arrivalLane="edgeS_I_1" arrivalPos="692.10" arrivalSpeed="25.12" duration="100.00" routeLength="1694.56" waitingTime="0.00" waitingCount="0" stopTime="0.00" timeLoss="8.94" rerouteNo="0" devices="tripinfo_straightN_13" vType="vehicleN_13" speedFactor="1.14" vaporized=""/>
    <tripinfo id="straightS_18" depart="17.00" departLane="edgeS_O_1" departPos="4.40" departSpeed="0.00" departDelay="0.00" arrival="115.00" arrivalLane="edgeN_I_1" arrivalPos="992.10" arrivalSpeed="23.80" duration="98.00" routeLength="1695.60" waitingTime="0.00" waitingCount="0" stopTime="0.00" timeLoss="7.88" rerouteNo="0" devices="tripinfo_straightS_18" vType="vehicleS_18" speedFactor="1.04" vaporized=""/>
    <tripinfo id="straightN_12" depart="11.00" departLane="edgeN_O_2" departPos="4.78" departSpeed="0.00" departDelay="0.00" arrival="119.00" arrivalLane="edgeS_I_1" arrivalPos="692.10" arrivalSpeed="22.96" duration="108.00" routeLength="1695.22" waitingTime="0.00" waitingCount="0" stopTime="0.00" timeLoss="9.04" rerouteNo="0" devices="tripinfo_straightN_12" vType="vehicleN_12" speedFactor="1.05" vaporized=""/>
    <tripinfo id="straightS_40" depart="32.00" departLane="edgeS_O_2" departPos="5.47" departSpeed="0.00" departDelay="0.00" arrival="129.00" arrivalLane="edgeN_I_3" arrivalPos="992.10" arrivalSpeed="24.80" duration="97.00" routeLength="1694.53" waitingTime="0.00" waitingCount="0" stopTime="0.00" timeLoss="10.67" rerouteNo="0" devices="tripinfo_straightS_40" vType="vehicleS_40" speedFactor="1.09" vaporized=""/>
    <tripinfo id="straightS_36" depart="28.00" departLane="edgeS_O_2" departPos="5.18" departSpeed="0.00" departDelay="0.00" arrival="130.00" arrivalLane="edgeN_I_1" arrivalPos="992.10" arrivalSpeed="22.48" duration="102.00" routeLength="1694.82" waitingTime="0.00" waitingCount="0" stopTime="0.00" timeLoss="9.15" rerouteNo="0" devices="tripinfo_straightS_36" vType="vehicleS_36" speedFactor="1.01" vaporized=""/>
    <tripinfo id="straightS_21" depart="21.00" departLane="edgeS_O_1" departPos="4.79" departSpeed="0.00" departDelay="0.00" arrival="134.00" arrivalLane="edgeN_I_1" arrivalPos="992.10" arrivalSpeed="19.83" duration="113.00" routeLength="1695.21" waitingTime="0.00" waitingCount="0" stopTime="0.00" timeLoss="8.80" rerouteNo="0" devices="tripinfo_straightS_21" vType="vehicleS_21" speedFactor="0.90" vaporized=""/>
    <tripinfo id="straightE_1" depart="0.00" departLane="edgeE_O_1" departPos="4.40" departSpeed="0.00" departDelay="0.00" arrival="136.00" arrivalLane="edgeW_I_1" arrivalPos="385.70" arrivalSpeed="16.28" duration="136.00" routeLength="1195.60" waitingTime="68.00" waitingCount="1" stopTime="0.00" timeLoss="79.59" rerouteNo="0" devices="tripinfo_straightE_1" vType="vehicleE_1" speedFactor="1.05" vaporized=""/>
    <tripinfo id="straightS_16" depart="15.00" departLane="edgeS_O_2" departPos="5.62" departSpeed="0.00" departDelay="1.00" arrival="139.00" arrivalLane="edgeN_I_1" arrivalPos="992.10" arrivalSpeed="18.29" duration="124.00" routeLength="1694.38" waitingTime="0.00" waitingCount="0" stopTime="0.00" timeLoss="9.42" rerouteNo="0" devices="tripinfo_straightS_16" vType="vehicleS_16" speedFactor="0.82" vaporized=""/>
    <tripinfo id="straightS_30" depart="25.00" departLane="edgeS_O_1" departPos="4.46" departSpeed="0.00" departDelay="0.00" arrival="140.00" arrivalLane="edgeN_I_2" arrivalPos="992.10" arrivalSpeed="21.31" duration="115.00" routeLength="1695.54" waitingTime="0.00" waitingCount="0" stopTime="0.00" timeLoss="12.68" rerouteNo="0" devices="tripinfo_straightS_30" vType="vehicleS_30" speedFactor="0.92" vaporized=""/>
    <tripinfo id="straightE_4" depart="4.00" departLane="edgeE_O_1" departPos="4.50" departSpeed="0.00" departDelay="0.00" arrival="142.00" arrivalLane="edgeW_I_1" arrivalPos="385.70" arrivalSpeed="15.07" duration="138.00" routeLength="1195.50" waitingTime="57.00" waitingCount="1" stopTime="0.00" timeLoss="73.00" rerouteNo="0" devices="tripinfo_straightE_4" vType="vehicleE_4" speedFactor="0.92" vaporized=""/>
    <tripinfo id="straightE_5" depart="7.00" departLane="edgeE_O_1" departPos="5.15" departSpeed="0.00" departDelay="2.00" arrival="143.00" arrivalLane="edgeW_I_1" arrivalPos="385.70" arrivalSpeed="18.27" duration="136.00" routeLength="1194.85" waitingTime="56.00" waitingCount="1" stopTime="0.00" timeLoss="85.21" rerouteNo="0" devices="tripinfo_straightE_5" vType="vehicleE_5" speedFactor="1.16" vaporized=""/>
    <tripinfo id="straightE_8" depart="10.00" departLane="edgeE_O_1" departPos="5.27" departSpeed="0.00" departDelay="2.00" arrival="145.00" arrivalLane="edgeW_I_1" arrivalPos="385.70" arrivalSpeed="19.59" duration="135.00" routeLength="1194.73" waitingTime="55.00" waitingCount="1" stopTime="0.00" timeLoss="84.41" rerouteNo="0" devices="tripinfo_straightE_8" vType="vehicleE_8" speedFactor="1.18" vaporized=""/>
    <tripinfo id="straightS_25" depart="22.00" departLane="edgeS_O_2" departPos="5.65" departSpeed="0.00" departDelay="0.00" arrival="147.00" arrivalLane="edgeN_I_1" arrivalPos="992.10" arrivalSpeed="17.61" duration="125.00" routeLength="1694.35" waitingTime="0.00" waitingCount="0" stopTime="0.00" timeLoss="10.53" rerouteNo="0" devices="tripinfo_straightS_25" vType="vehicleS_25" speedFactor="0.82" vaporized=""/>
    <tripinfo id="straightE_10" depart="12.00" departLane="edgeE_O_1" departPos="5.16" departSpeed="0.00" departDelay="3.00" arrival="148.00" arrivalLane="edgeW_I_1" arrivalPos="385.70" arrivalSpeed="13.54" duration="136.00" routeLength="1194.84" waitingTime="53.00" waitingCount="1" stopTime="0.00" timeLoss="70.03" rerouteNo="0" devices="tripinfo_straightE_10" vType="vehicleE_10" speedFactor="0.90" vaporized=""/>
    <tripinfo id="straightE_11" depart="15.00" departLane="edgeE_O_1" departPos="5.17" departSpeed="0.00" departDelay="5.00" arrival="150.00" arrivalLane="edgeW_I_1" arrivalPos="385.70" arrivalSpeed="15.05" duration="135.00" routeLength="1194.84" waitingTime="53.00" waitingCount="1" stopTime="0.00" timeLoss="70.30" rerouteNo="0" devices="tripinfo_straightE_11" vType="vehicleE_11" speedFactor="0.92" vaporized=""/>
    <tripinfo id="straightE_20" depart="20.00" departLane="edgeE_O_1" departPos="4.58" departSpeed="0.00" departDelay="0.00" arrival="152.00" arrivalLane="edgeW_I_1" arrivalPos="385.70" arrivalSpeed="14.72" duration="132.00" routeLength="1195.42" waitingTime="48.00" waitingCount="1" stopTime="0.00" timeLoss="65.46" rerouteNo="0" devices="tripinfo_straightE_20" vType="vehicleE_20" speedFactor="0.88" vaporized=""/>
    <tripinfo id="straightE_23" depart="22.00" departLane="edgeE_O_1" departPos="4.37" departSpeed="0.00" departDelay="1.00" arrival="154.00" arrivalLane="edgeW_I_1" arrivalPos="385.70" arrivalSpeed="17.60" duration="132.00" routeLength="1195.63" waitingTime="47.00" waitingCount="1" stopTime="0.00" timeLoss="79.37" rerouteNo="0" devices="tripinfo_straightE_23" vType="vehicleE_23" speedFactor="1.12" vaporized=""/>
    <tripinfo id="straightE_31" depart="25.00" departLane="edgeE_O_1" departPos="5.20" departSpeed="0.00" departDelay="0.00" arrival="156.00" arrivalLane="edgeW_I_1" arrivalPos="385.70" arrivalSpeed="16.43" duration="131.00" routeLength="1194.80" waitingTime="48.00" waitingCount="1" stopTime="0.00" timeLoss="75.04" rerouteNo="0" devices="tripinfo_straightE_31" vType="vehicleE_31" speedFactor="1.06" vaporized=""/>
    <tripinfo id="straightW_3" depart="1.00" departLane="edgeW_O_1" departPos="4.58" departSpeed="0.00" departDelay="0.00" arrival="162.00" arrivalLane="edgeE_I_1" arrivalPos="785.70" arrivalSpeed="15.98" duration="161.00" routeLength="1195.42" waitingTime="80.00" waitingCount="1" stopTime="0.00" timeLoss="96.27" rerouteNo="0" devices="tripinfo_straightW_3" vType="vehicleW_3" speedFactor="1.01" vaporized=""/>
    <tripinfo id="straightW_7" depart="7.00" departLane="edgeW_O_1" departPos="4.46" departSpeed="0.00" departDelay="0.00" arrival="164.00" arrivalLane="edgeE_I_1" arrivalPos="785.70" arrivalSpeed="18.99" duration="157.00" routeLength="1195.54" waitingTime="77.00" waitingCount="1" stopTime="0.00" timeLoss="99.77" rerouteNo="0" devices="tripinfo_straightW_7" vType="vehicleW_7" speedFactor="1.15" vaporized=""/>
    <tripinfo id="leftS_70" depart="70.00" departLane="edgeS_O_3" departPos="4.10" departSpeed="0.00" departDelay="0.00" arrival="164.00" arrivalLane="edgeW_I_1" arrivalPos="385.70" arrivalSpeed="15.14" duration="94.00" routeLength="1093.35" waitingTime="2.00" waitingCount="1" stopTime="0.00" timeLoss="12.65" rerouteNo="0" devices="tripinfo_leftS_70" vType="vehicleS_70" speedFactor="0.93" vaporized=""/>
    <tripinfo id="leftS_72" depart="71.00" departLane="edgeS_O_2" departPos="4.84" departSpeed="0.00" departDelay="0.00" arrival="166.00" arrivalLane="edgeW_I_1" arrivalPos="385.70" arrivalSpeed="16.49" duration="95.00" routeLength="1092.61" waitingTime="4.00" waitingCount="2" stopTime="0.00" timeLoss="17.33" rerouteNo="0" devices="tripinfo_leftS_72" vType="vehicleS_72" speedFactor="0.98" vaporized=""/>
    <tripinfo id="straightW_9" depart="10.00" departLane="edgeW_O_1" departPos="4.87" departSpeed="0.00" departDelay="1.00" arrival="168.00" arrivalLane="edgeE_I_1" arrivalPos="785.70" arrivalSpeed="16.16" duration="158.00" routeLength="1195.13" waitingTime="73.00" waitingCount="1" stopTime="0.00" timeLoss="91.17" rerouteNo="0" devices="tripinfo_straightW_9" vType="vehicleW_9" speedFactor="0.97" vaporized=""/>
    <tripinfo id="straightW_15" depart="13.00" departLane="edgeW_O_1" departPos="4.97" departSpeed="0.00" departDelay="0.00" arrival="175.00" arrivalLane="edgeE_I_1" arrivalPos="785.70" arrivalSpeed="13.90" duration="162.00" routeLength="1195.03" waitingTime="71.00" waitingCount="1" stopTime="0.00" timeLoss="88.11" rerouteNo="0" devices="tripinfo_straightW_15" vType="vehicleW_15" speedFactor="0.88" vaporized=""/>
    <tripinfo id="straightW_22" depart="21.00" departLane="edgeW_O_1" departPos="5.43" departSpeed="0.00" departDelay="0.00" arrival="176.00" arrivalLane="edgeE_I_1" arrivalPos="785.70" arrivalSpeed="17.36" duration="155.00" routeLength="1194.57" waitingTime="69.00" waitingCount="1" stopTime="0.00" timeLoss="99.06" rerouteNo="0" devices="tripinfo_straightW_22" vType="vehicleW_22" speedFactor="1.16" vaporized=""/>
    <tripinfo id="straightW_26" depart="23.00" departLane="edgeW_O_1" departPos="4.86" departSpeed="0.00" departDelay="1.00" arrival="180.00" arrivalLane="edgeE_I_1" arrivalPos="785.70" arrivalSpeed="13.81" duration="157.00" routeLength="1195.14" waitingTime="65.00" waitingCount="1" stopTime="0.00" timeLoss="84.26" rerouteNo="0" devices="tripinfo_straightW_26" vType="vehicleW_26" speedFactor="0.90" vaporized=""/>
    <tripinfo id="straightW_28" depart="26.00" departLane="edgeW_O_1" departPos="5.12" departSpeed="0.00" departDelay="3.00" arrival="182.00" arrivalLane="edgeE_I_1" arrivalPos="785.70" arrivalSpeed="17.59" duration="156.00" routeLength="1194.88" waitingTime="63.00" waitingCount="1" stopTime="0.00" timeLoss="99.26" rerouteNo="0" devices="tripinfo_straightW_28" vType="vehicleW_28" speedFactor="1.16" vaporized=""/>
    <tripinfo id="straightW_34" depart="29.00" departLane="edgeW_O_1" departPos="4.09" departSpeed="0.00" departDelay="2.00" arrival="183.00" arrivalLane="edgeE_I_1" arrivalPos="785.70" arrivalSpeed="15.65" duration="154.00" routeLength="1195.91" waitingTime="63.00" waitingCount="1" stopTime="0.00" timeLoss="89.96" rerouteNo="0" devices="tripinfo_straightW_34" vType="vehicleW_34" speedFactor="1.01" vaporized=""/>
    <tripinfo id="leftN_41" depart="34.00" departLane="edgeN_O_3" departPos="5.32" departSpeed="0.00" departDelay="0.00" arrival="185.00" arrivalLane="edgeE_I_1" arrivalPos="785.70" arrivalSpeed="19.27" duration="151.00" routeLength="1792.13" waitingTime="31.00" waitingCount="1" stopTime="0.00" timeLoss="49.61" rerouteNo="0" devices="tripinfo_leftN_41" vType="vehicleN_41" speedFactor="1.19" vaporized=""/>
    <tripinfo id="straightN_19" depart="20.00" departLane="edgeN_O_1" departPos="4.61" departSpeed="0.00" departDelay="0.00" arrival="187.00" arrivalLane="edgeS_I_1" arrivalPos="692.10" arrivalSpeed="20.08" duration="167.00" routeLength="1695.39" waitingTime="27.00" waitingCount="2" stopTime="0.00" timeLoss="48.83" rerouteNo="0" devices="tripinfo_straightN_19" vType="vehicleN_19" speedFactor="0.88" vaporized=""/>
    <tripinfo id="leftN_39" depart="31.00" departLane="edgeN_O_2" departPos="5.37" departSpeed="0.00" departDelay="1.00" arrival="187.00" arrivalLane="edgeE_I_1" arrivalPos="785.70" arrivalSpeed="17.00" duration="156.00" routeLength="1792.08" waitingTime="25.00" waitingCount="1" stopTime="0.00" timeLoss="40.15" rerouteNo="0" devices="tripinfo_leftN_39" vType="vehicleN_39" speedFactor="1.05" vaporized=""/>
    <tripinfo id="straightS_67" depart="64.00" departLane="edgeS_O_2" departPos="4.84" departSpeed="0.00" departDelay="0.00" arrival="187.00" arrivalLane="edgeN_I_1" arrivalPos="992.10" arrivalSpeed="26.36" duration="123.00" routeLength="1695.16" waitingTime="26.00" waitingCount="1" stopTime="0.00" timeLoss="39.57" rerouteNo="0" devices="tripinfo_straightS_67" vType="vehicleS_67" speedFactor="1.13" vaporized=""/>
    <tripinfo id="straightN_2" depart="1.00" departLane="edgeN_O_2" departPos="5.38" departSpeed="0.00" departDelay="0.00" arrival="188.00" arrivalLane="edgeS_I_1" arrivalPos="692.10" arrivalSpeed="18.03" duration="187.00" routeLength="1694.62" waitingTime="41.00" waitingCount="1" stopTime="0.00" timeLoss="57.42" rerouteNo="0" devices="tripinfo_straightN_2" vType="vehicleN_2" speedFactor="0.80" vaporized=""/>
    <tripinfo id="straightN_33" depart="27.00" departLane="edgeN_O_2" departPos="5.23" departSpeed="0.00" departDelay="0.00" arrival="188.00" arrivalLane="edgeS_I_2" arrivalPos="692.10" arrivalSpeed="22.34" duration="161.00" routeLength="1694.77" waitingTime="33.00" waitingCount="1" stopTime="0.00" timeLoss="54.23" rerouteNo="0" devices="tripinfo_straightN_33" vType="vehicleN_33" speedFactor="0.96" vaporized=""/>
    <tripinfo id="straightS_75" depart="75.00" departLane="edgeS_O_2" departPos="5.18" departSpeed="0.00" departDelay="0.00" arrival="189.00" arrivalLane="edgeN_I_2" arrivalPos="992.10" arrivalSpeed="25.59" duration="114.00" routeLength="1694.82" waitingTime="10.00" waitingCount="1" stopTime="0.00" timeLoss="32.05" rerouteNo="0" devices="tripinfo_straightS_75" vType="vehicleS_75" speedFactor="1.15" vaporized=""/>
    <tripinfo id="straightN_24" depart="22.00" departLane="edgeN_O_2" departPos="5.58" departSpeed="0.00" departDelay="0.00" arrival="190.00" arrivalLane="edgeS_I_3" arrivalPos="692.10" arrivalSpeed="18.77" duration="168.00" routeLength="1694.42" waitingTime="25.00" waitingCount="1" stopTime="0.00" timeLoss="47.97" rerouteNo="0" devices="tripinfo_straightN_24" vType="vehicleN_24" speedFactor="0.86" vaporized=""/>
    <tripinfo id="straightN_29" depart="25.00" departLane="edgeN_O_1" departPos="5.28" departSpeed="0.00" departDelay="0.00" arrival="190.00" arrivalLane="edgeS_I_1" arrivalPos="692.10" arrivalSpeed="20.70" duration="165.00" routeLength="1694.72" waitingTime="34.00" waitingCount="1" stopTime="0.00" timeLoss="63.37" rerouteNo="0" devices="tripinfo_straightN_29" vType="vehicleN_29" speedFactor="1.02" vaporized=""/>
    <tripinfo id="leftS_92" depart="97.00" departLane="edgeS_O_2" departPos="5.08" departSpeed="0.00" departDelay="0.00" arrival="190.00" arrivalLane="edgeW_I_1" arrivalPos="385.70" arrivalSpeed="15.72" duration="93.00" routeLength="1095.13" waitingTime="0.00" waitingCount="0" stopTime="0.00" timeLoss="11.71" rerouteNo="0" devices="tripinfo_leftS_92" vType="vehicleS_92" speedFactor="0.93" vaporized=""/>
    <tripinfo id="straightN_49" depart="43.00" departLane="edgeN_O_2" departPos="5.52" departSpeed="0.00" departDelay="0.00" arrival="191.00" arrivalLane="edgeS_I_3" arrivalPos="692.10" arrivalSpeed="21.65" duration="148.00" routeLength="1694.48" waitingTime="23.00" waitingCount="1" stopTime="0.00" timeLoss="50.57" rerouteNo="0" devices="tripinfo_straightN_49" vType="vehicleN_49" speedFactor="1.05" vaporized=""/>
    <tripinfo id="leftN_57" depart="57.00" departLane="edgeN_O_2" departPos="4.92" departSpeed="0.00" departDelay="1.00" arrival="191.00" arrivalLane="edgeE_I_1" arrivalPos="785.70" arrivalSpeed="17.09" duration="134.00" routeLength="1792.53" waitingTime="0.00" waitingCount="0" stopTime="0.00" timeLoss="15.29" rerouteNo="0" devices="tripinfo_leftN_57" vType="vehicleN_57" speedFactor="1.02" vaporized=""/>
    <tripinfo id="straightN_45" depart="38.00" departLane="edgeN_O_2" departPos="4.65" departSpeed="0.00" departDelay="0.00" arrival="192.00" arrivalLane="edgeS_I_1" arrivalPos="692.10" arrivalSpeed="22.77" duration="154.00" routeLength="1695.35" waitingTime="27.00" waitingCount="1" stopTime="0.00" timeLoss="51.22" rerouteNo="0" devices="tripinfo_straightN_45" vType="vehicleN_45" speedFactor="1.00" vaporized=""/>
    <tripinfo id="straightN_52" depart="48.00" departLane="edgeN_O_1" departPos="4.47" departSpeed="0.00" departDelay="0.00" arrival="193.00" arrivalLane="edgeS_I_2" arrivalPos="692.10" arrivalSpeed="22.72" duration="145.00" routeLength="1695.53" waitingTime="25.00" waitingCount="1" stopTime="0.00" timeLoss="48.31" rerouteNo="0" devices="tripinfo_straightN_52" vType="vehicleN_52" speedFactor="1.07" vaporized=""/>
    <tripinfo id="straightN_55" depart="52.00" departLane="edgeN_O_1" departPos="4.67" departSpeed="0.00" departDelay="0.00" arrival="193.00" arrivalLane="edgeS_I_3" arrivalPos="692.10" arrivalSpeed="22.31" duration="141.00" routeLength="1695.33" waitingTime="18.00" waitingCount="1" stopTime="0.00" timeLoss="47.06" rerouteNo="0" devices="tripinfo_straightN_55" vType="vehicleN_55" speedFactor="1.10" vaporized=""/>
    <tripinfo id="straightN_54" depart="49.00" departLane="edgeN_O_2" departPos="5.54" departSpeed="0.00" departDelay="0.00" arrival="194.00" arrivalLane="edgeS_I_2" arrivalPos="692.10" arrivalSpeed="21.04" duration="145.00" routeLength="1694.46" waitingTime="11.00" waitingCount="1" stopTime="0.00" timeLoss="34.26" rerouteNo="0" devices="tripinfo_straightN_54" vType="vehicleN_54" speedFactor="0.93" vaporized=""/>
    <tripinfo id="straightN_43" depart="36.00" departLane="edgeN_O_1" departPos="4.33" departSpeed="0.00" departDelay="0.00" arrival="196.00" arrivalLane="edgeS_I_1" arrivalPos="692.10" arrivalSpeed="18.13" duration="160.00" routeLength="1695.67" waitingTime="18.00" waitingCount="1" stopTime="0.00" timeLoss="34.55" rerouteNo="0" devices="tripinfo_straightN_43" vType="vehicleN_43" speedFactor="0.82" vaporized=""/>
    <tripinfo id="straightN_61" depart="59.00" departLane="edgeN_O_2" departPos="5.42" departSpeed="0.00" departDelay="0.00" arrival="196.00" arrivalLane="edgeS_I_2" arrivalPos="692.10" arrivalSpeed="21.27" duration="137.00" routeLength="1694.58" waitingTime="2.00" waitingCount="1" stopTime="0.00" timeLoss="24.70" rerouteNo="0" devices="tripinfo_straightN_61" vType="vehicleN_61" speedFactor="0.92" vaporized=""/>
    <tripinfo id="straightN_69" depart="66.00" departLane="edgeN_O_1" departPos="4.47" departSpeed="0.00" departDelay="0.00" arrival="196.00" arrivalLane="edgeS_I_3" arrivalPos="692.10" arrivalSpeed="23.50" duration="130.00" routeLength="1695.53" waitingTime="0.00" waitingCount="0" stopTime="0.00" timeLoss="27.88" rerouteNo="0" devices="tripinfo_straightN_69" vType="vehicleN_69" speedFactor="1.01" vaporized=""/>
    <tripinfo id="straightN_59" depart="58.00" departLane="edgeN_O_1" departPos="5.04" departSpeed="0.00" departDelay="0.00" arrival="197.00" arrivalLane="edgeS_I_2" arrivalPos="692.10" arrivalSpeed="21.40" duration="139.00" routeLength="1694.96" waitingTime="9.00" waitingCount="1" stopTime="0.00" timeLoss="28.42" rerouteNo="0" devices="tripinfo_straightN_59" vType="vehicleN_59" speedFactor="0.93" vaporized=""/>
    <tripinfo id="straightN_74" depart="75.00" departLane="edgeN_O_1" departPos="5.13" departSpeed="0.00" departDelay="0.00" arrival="197.00" arrivalLane="edgeS_I_3" arrivalPos="692.10" arrivalSpeed="24.96" duration="122.00" routeLength="1694.87" waitingTime="0.00" waitingCount="0" stopTime="0.00" timeLoss="32.69" rerouteNo="0" devices="tripinfo_straightN_74" vType="vehicleN_74" speedFactor="1.15" vaporized=""/>
    <tripinfo id="straightN_46" depart="39.00" departLane="edgeN_O_1" departPos="5.04" departSpeed="0.00" departDelay="0.00" arrival="198.00" arrivalLane="edgeS_I_1" arrivalPos="692.10" arrivalSpeed="18.35" duration="159.00" routeLength="1694.96" waitingTime="16.00" waitingCount="1" stopTime="0.00" timeLoss="34.58" rerouteNo="0" devices="tripinfo_straightN_46" vType="vehicleN_46" speedFactor="0.83" vaporized=""/>
    <tripinfo id="straightS_47" depart="41.00" departLane="edgeS_O_1" departPos="4.41" departSpeed="0.00" departDelay="0.00" arrival="198.00" arrivalLane="edgeN_I_1" arrivalPos="992.10" arrivalSpeed="20.03" duration="157.00" routeLength="1695.59" waitingTime="37.00" waitingCount="1" stopTime="0.00" timeLoss="50.56" rerouteNo="0" devices="tripinfo_straightS_47" vType="vehicleS_47" speedFactor="0.88" vaporized=""/>
    <tripinfo id="straightN_56" depart="54.00" departLane="edgeN_O_2" departPos="5.48" departSpeed="0.00" departDelay="0.00" arrival="200.00" arrivalLane="edgeS_I_1" arrivalPos="692.10" arrivalSpeed="18.89" duration="146.00" routeLength="1694.52" waitingTime="6.00" waitingCount="1" stopTime="0.00" timeLoss="25.30" rerouteNo="0" devices="tripinfo_straightN_56" vType="vehicleN_56" speedFactor="0.85" vaporized=""/>
    <tripinfo id="straightN_78" depart="84.00" departLane="edgeN_O_1" departPos="4.81" departSpeed="0.00" departDelay="1.00" arrival="200.00" arrivalLane="edgeS_I_3" arrivalPos="692.10" arrivalSpeed="22.99" duration="116.00" routeLength="1695.19" waitingTime="0.00" waitingCount="0" stopTime="0.00" timeLoss="13.02" rerouteNo="0" devices="tripinfo_straightN_78" vType="vehicleN_78" speedFactor="1.00" vaporized=""/>
    <tripinfo id="straightN_66" depart="64.00" departLane="edgeN_O_1" departPos="5.02" departSpeed="0.00" departDelay="0.00" arrival="201.00" arrivalLane="edgeS_I_2" arrivalPos="692.10" arrivalSpeed="20.28" duration="137.00" routeLength="1694.98" waitingTime="1.00" waitingCount="1" stopTime="0.00" timeLoss="22.72" rerouteNo="0" devices="tripinfo_straightN_66" vType="vehicleN_66" speedFactor="0.90" vaporized=""/>
    <tripinfo id="straightN_63" depart="62.00" departLane="edgeN_O_2" departPos="4.03" departSpeed="0.00" departDelay="2.00" arrival="202.00" arrivalLane="edgeS_I_1" arrivalPos="692.10" arrivalSpeed="22.67" duration="140.00" routeLength="1695.97" waitingTime="6.00" waitingCount="1" stopTime="0.00" timeLoss="37.91" rerouteNo="0" devices="tripinfo_straightN_63" vType="vehicleN_63" speedFactor="1.01" vaporized=""/>
    <tripinfo id="straightN_86" depart="93.00" departLane="edgeN_O_1" departPos="4.71" departSpeed="0.00" departDelay="3.00" arrival="203.00" arrivalLane="edgeS_I_2" arrivalPos="692.10" arrivalSpeed="23.56" duration="110.00" routeLength="1695.29" waitingTime="0.00" waitingCount="0" stopTime="0.00" timeLoss="13.47" rerouteNo="0" devices="tripinfo_straightN_86" vType="vehicleN_86" speedFactor="1.07" vaporized=""/>
    <tripinfo id="straightN_94" depart="98.00" departLane="edgeN_O_2" departPos="4.51" departSpeed="0.00" departDelay="0.00" arrival="203.00" arrivalLane="edgeS_I_3" arrivalPos="692.10" arrivalSpeed="24.87" duration="105.00" routeLength="1695.49" waitingTime="0.00" waitingCount="0" stopTime="0.00" timeLoss="13.00" rerouteNo="0" devices="tripinfo_straightN_94" vType="vehicleN_94" speedFactor="1.13" vaporized=""/>
    <tripinfo id="leftN_17" depart="17.00" departLane="edgeN_O_2" departPos="4.04" departSpeed="0.00" departDelay="0.00" arrival="204.00" arrivalLane="edgeE_I_1" arrivalPos="785.70" arrivalSpeed="12.79" duration="187.00" routeLength="1793.41" waitingTime="27.00" waitingCount="1" stopTime="0.00" timeLoss="43.96" rerouteNo="0" devices="tripinfo_leftN_17" vType="vehicleN_17" speedFactor="0.85" vaporized=""/>
    <tripinfo id="leftN_27" depart="25.00" departLane="edgeN_O_2" departPos="5.47" departSpeed="0.00" departDelay="2.00" arrival="205.00" arrivalLane="edgeE_I_1" arrivalPos="785.70" arrivalSpeed="14.33" duration="180.00" routeLength="1794.74" waitingTime="47.00" waitingCount="2" stopTime="0.00" timeLoss="76.08" rerouteNo="0" devices="tripinfo_leftN_27" vType="vehicleN_27" speedFactor="1.17" vaporized=""/>
    <tripinfo id="straightS_53" depart="48.00" departLane="edgeS_O_2" departPos="4.27" departSpeed="0.00" departDelay="0.00" arrival="205.00" arrivalLane="edgeN_I_1" arrivalPos="992.10" arrivalSpeed="17.36" duration="157.00" routeLength="1695.73" waitingTime="25.00" waitingCount="1" stopTime="0.00" timeLoss="39.40" rerouteNo="0" devices="tripinfo_straightS_53" vType="vehicleS_53" speedFactor="0.80" vaporized=""/>
    <tripinfo id="straightN_77" depart="82.00" departLane="edgeN_O_1" departPos="5.15" departSpeed="0.00" departDelay="0.00" arrival="205.00" arrivalLane="edgeS_I_2" arrivalPos="692.10" arrivalSpeed="21.22" duration="123.00" routeLength="1694.85" waitingTime="0.00" waitingCount="0" stopTime="0.00" timeLoss="12.78" rerouteNo="0" devices="tripinfo_straightN_77" vType="vehicleN_77" speedFactor="0.94" vaporized=""/>
    <tripinfo id="straightN_64" depart="65.00" departLane="edgeN_O_2" departPos="4.92" departSpeed="0.00" departDelay="3.00" arrival="206.00" arrivalLane="edgeS_I_1" arrivalPos="692.10" arrivalSpeed="17.88" duration="141.00" routeLength="1695.08" waitingTime="0.00" waitingCount="0" stopTime="0.00" timeLoss="12.87" rerouteNo="0" devices="tripinfo_straightN_64" vType="vehicleN_64" speedFactor="0.80" vaporized=""/>
    <tripinfo id="leftN_76" depart="79.00" departLane="edgeN_O_3" departPos="4.53" departSpeed="0.00" departDelay="0.00" arrival="207.00" arrivalLane="edgeE_I_1" arrivalPos="785.70" arrivalSpeed="17.15" duration="128.00" routeLength="1792.92" waitingTime="0.00" waitingCount="0" stopTime="0.00" timeLoss="14.42" rerouteNo="0" devices="tripinfo_leftN_76" vType="vehicleN_76" speedFactor="1.07" vaporized=""/>
    <tripinfo id="straightS_98" depart="101.00" departLane="edgeS_O_1" departPos="4.62" departSpeed="0.00" departDelay="0.00" arrival="208.00" arrivalLane="edgeN_I_1" arrivalPos="992.10" arrivalSpeed="21.22" duration="107.00" routeLength="1695.38" waitingTime="0.00" waitingCount="0" stopTime="0.00" timeLoss="8.02" rerouteNo="0" devices="tripinfo_straightS_98" vType="vehicleS_98" speedFactor="0.95" vaporized=""/>
    <tripinfo id="leftN_79" depart="85.00" departLane="edgeN_O_3" departPos="4.71" departSpeed="0.00" departDelay="0.00" arrival="209.00" arrivalLane="edgeE_I_1" arrivalPos="785.70" arrivalSpeed="18.20" duration="124.00" routeLength="1792.74" waitingTime="0.00" waitingCount="0" stopTime="0.00" timeLoss="15.50" rerouteNo="0" devices="tripinfo_leftN_79" vType="vehicleN_79" speedFactor="1.12" vaporized=""/>
    <tripinfo id="leftN_83" depart="88.00" departLane="edgeN_O_2" departPos="4.70" departSpeed="0.00" departDelay="0.00" arrival="210.00" arrivalLane="edgeE_I_1" arrivalPos="785.70" arrivalSpeed="18.06" duration="122.00" routeLength="1792.75" waitingTime="0.00" waitingCount="0" stopTime="0.00" timeLoss="12.80" rerouteNo="0" devices="tripinfo_leftN_83" vType="vehicleN_83" speedFactor="1.11" vaporized=""/>