<?xml version="1.0" encoding="UTF-8"?>

<!-- generated on 2021-10-23 04:06:19 by Eclipse SUMO sumo Version 1.10.0
<configuration xmlns:xsi="http://www.w3.org/2001/XMLSchema-instance" xsi:noNamespaceSchemaLocation="http://sumo.dlr.de/xsd/sumoConfiguration.xsd">

    <input>
        <net-file value="data1/cross.net.xml"/>
        <route-files value="data1/cross.rou.xml"/>
        <additional-files value="data1/cross.tls.xml"/>
    </input>

    <output>
        <tripinfo-output value="data1/tripinfo.xml"/>
        <tripinfo-output.write-unfinished value="true"/>
    </output>

    <time>
        <begin value="0"/>
        <step-length value="1"/>
    </time>

    <processing>
        <threads value="5"/>
        <time-to-teleport value="-1"/>
    </processing>

    <report>
        <verbose value="true"/>
        <no-warnings value="true"/>
        <no-step-log value="true"/>
    </report>

    <traci_server>
        <remote-port value="54642"/>
    </traci_server>

    <gui_only>
        <gui-settings-file value="data1/viewsettings.xml"/>
        <tracker-interval value="1"/>
    </gui_only>

</configuration>
-->

<tripinfos xmlns:xsi="http://www.w3.org/2001/XMLSchema-instance" xsi:noNamespaceSchemaLocation="http://sumo.dlr.de/xsd/tripinfo_file.xsd">
    <tripinfo id="straightN_9" depart="7.00" departLane="edgeN_O_2" departPos="5.56" departSpeed="0.00" departDelay="0.00" arrival="61.00" arrivalLane="edgeS_I_2" arrivalPos="688.90" arrivalSpeed="27.22" duration="54.00" routeLength="1294.44" waitingTime="0.00" waitingCount="0" stopTime="0.00" timeLoss="5.56" rerouteNo="0" devices="tripinfo_straightN_9" vType="vehicleN_9" speedFactor="1.07" vaporized=""/>
    <tripinfo id="straightS_10" depart="7.00" departLane="edgeS_O_3" departPos="4.51" departSpeed="0.00" departDelay="0.00" arrival="63.00" arrivalLane="edgeN_I_3" arrivalPos="588.90" arrivalSpeed="27.30" duration="56.00" routeLength="1295.49" waitingTime="0.00" waitingCount="0" stopTime="0.00" timeLoss="6.07" rerouteNo="0" devices="tripinfo_straightS_10" vType="vehicleS_10" speedFactor="1.06" vaporized=""/>
    <tripinfo id="straightS_0" depart="0.00" departLane="edgeS_O_4" departPos="4.44" departSpeed="0.00" departDelay="0.00" arrival="65.00" arrivalLane="edgeN_I_2" arrivalPos="588.90" arrivalSpeed="21.86" duration="65.00" routeLength="1295.56" waitingTime="0.00" waitingCount="0" stopTime="0.00" timeLoss="5.44" rerouteNo="0" devices="tripinfo_straightS_0" vType="vehicleS_0" speedFactor="0.89" vaporized=""/>
    <tripinfo id="straightN_16" depart="12.00" departLane="edgeN_O_2" departPos="5.73" departSpeed="0.00" departDelay="0.00" arrival="66.00" arrivalLane="edgeS_I_3" arrivalPos="688.90" arrivalSpeed="27.10" duration="54.00" routeLength="1294.27" waitingTime="0.00" waitingCount="0" stopTime="0.00" timeLoss="5.65" rerouteNo="0" devices="tripinfo_straightN_16" vType="vehicleN_16" speedFactor="1.07" vaporized=""/>
    <tripinfo id="straightS_5" depart="5.00" departLane="edgeS_O_2" departPos="4.55" departSpeed="0.00" departDelay="1.00" arrival="67.00" arrivalLane="edgeN_I_3" arrivalPos="588.90" arrivalSpeed="25.51" duration="62.00" routeLength="1295.45" waitingTime="0.00" waitingCount="0" stopTime="0.00" timeLoss="7.50" rerouteNo="0" devices="tripinfo_straightS_5" vType="vehicleS_5" speedFactor="0.97" vaporized=""/>
    <tripinfo id="straightN_11" depart="9.00" departLane="edgeN_O_2" departPos="5.34" departSpeed="0.00" departDelay="1.00" arrival="68.00" arrivalLane="edgeS_I_2" arrivalPos="688.90" arrivalSpeed="25.73" duration="59.00" routeLength="1294.66" waitingTime="0.00" waitingCount="0" stopTime="0.00" timeLoss="6.20" rerouteNo="0" devices="tripinfo_straightN_11" vType="vehicleN_11" speedFactor="0.99" vaporized=""/>
    <tripinfo id="rightN_2" depart="2.00" departLane="edgeN_O_2" departPos="5.35" departSpeed="0.00" departDelay="0.00" arrival="69.00" arrivalLane="edgeW_I_1" arrivalPos="379.30" arrivalSpeed="11.65" duration="67.00" routeLength="973.01" waitingTime="0.00" waitingCount="0" stopTime="0.00" timeLoss="11.68" rerouteNo="0" devices="tripinfo_rightN_2" vType="vehicleN_2" speedFactor="1.04" vaporized=""/>
    <tripinfo id="straightS_6" depart="8.00" departLane="edgeS_O_2" departPos="5.20" departSpeed="0.00" departDelay="3.00" arrival="69.00" arrivalLane="edgeN_I_2" arrivalPos="588.90" arrivalSpeed="23.89" duration="61.00" routeLength="1294.80" waitingTime="0.00" waitingCount="0" stopTime="0.00" timeLoss="6.64" rerouteNo="0" devices="tripinfo_straightS_6" vType="vehicleS_6" speedFactor="0.96" vaporized=""/>
    <tripinfo id="straightS_15" depart="13.00" departLane="edgeS_O_2" departPos="4.33" departSpeed="0.00" departDelay="2.00" arrival="71.00" arrivalLane="edgeN_I_3" arrivalPos="588.90" arrivalSpeed="27.10" duration="58.00" routeLength="1295.66" waitingTime="0.00" waitingCount="0" stopTime="0.00" timeLoss="6.14" rerouteNo="0" devices="tripinfo_straightS_15" vType="vehicleS_15" speedFactor="1.02" vaporized=""/>
    <tripinfo id="rightS_3" depart="2.00" departLane="edgeS_O_2" departPos="4.63" departSpeed="0.00" departDelay="0.00" arrival="76.00" arrivalLane="edgeE_I_1" arrivalPos="379.30" arrivalSpeed="12.31" duration="74.00" routeLength="1073.73" waitingTime="0.00" waitingCount="0" stopTime="0.00" timeLoss="12.44" rerouteNo="0" devices="tripinfo_rightS_3" vType="vehicleS_3" speedFactor="1.00" vaporized=""/>
    <tripinfo id="straightS_24" depart="18.00" departLane="edgeS_O_4" departPos="4.85" departSpeed="0.00" departDelay="0.00" arrival="77.00" arrivalLane="edgeN_I_2" arrivalPos="588.90" arrivalSpeed="24.67" duration="59.00" routeLength="1295.15" waitingTime="0.00" waitingCount="0" stopTime="0.00" timeLoss="5.96" rerouteNo="0" devices="tripinfo_straightS_24" vType="vehicleS_24" speedFactor="0.99" vaporized=""/>
    <tripinfo id="straightN_27" depart="22.00" departLane="edgeN_O_4" departPos="5.63" departSpeed="0.00" departDelay="3.00" arrival="80.00" arrivalLane="edgeS_I_3" arrivalPos="688.90" arrivalSpeed="26.29" duration="58.00" routeLength="1294.37" waitingTime="0.00" waitingCount="0" stopTime="0.00" timeLoss="6.34" rerouteNo="0" devices="tripinfo_straightN_27" vType="vehicleN_27" speedFactor="1.00" vaporized=""/>
    <tripinfo id="straightS_32" depart="22.00" departLane="edgeS_O_3" departPos="4.47" departSpeed="0.00" departDelay="0.00" arrival="80.00" arrivalLane="edgeN_I_3" arrivalPos="588.90" arrivalSpeed="26.37" duration="58.00" routeLength="1295.53" waitingTime="0.00" waitingCount="0" stopTime="0.00" timeLoss="6.96" rerouteNo="0" devices="tripinfo_straightS_32" vType="vehicleS_32" speedFactor="1.03" vaporized=""/>
    <tripinfo id="straightN_21" depart="16.00" departLane="edgeN_O_4" departPos="4.98" departSpeed="0.00" departDelay="0.00" arrival="81.00" arrivalLane="edgeS_I_1" arrivalPos="688.90" arrivalSpeed="22.05" duration="65.00" routeLength="1295.02" waitingTime="0.00" waitingCount="0" stopTime="0.00" timeLoss="6.29" rerouteNo="0" devices="tripinfo_straightN_21" vType="vehicleN_21" speedFactor="0.89" vaporized=""/>
    <tripinfo id="straightN_30" depart="21.00" departLane="edgeN_O_2" departPos="5.07" departSpeed="0.00" departDelay="0.00" arrival="82.00" arrivalLane="edgeS_I_3" arrivalPos="688.90" arrivalSpeed="25.26" duration="61.00" routeLength="1294.93" waitingTime="0.00" waitingCount="0" stopTime="0.00" timeLoss="8.65" rerouteNo="0" devices="tripinfo_straightN_30" vType="vehicleN_30" speedFactor="0.99" vaporized=""/>
    <tripinfo id="rightS_13" depart="11.00" departLane="edgeS_O_2" departPos="5.34" departSpeed="0.00" departDelay="2.00" arrival="84.00" arrivalLane="edgeE_I_1" arrivalPos="379.30" arrivalSpeed="10.70" duration="73.00" routeLength="1073.02" waitingTime="0.00" waitingCount="0" stopTime="0.00" timeLoss="9.15" rerouteNo="0" devices="tripinfo_rightS_13" vType="vehicleS_13" speedFactor="0.96" vaporized=""/>
    <tripinfo id="straightS_33" depart="23.00" departLane="edgeS_O_4" departPos="5.02" departSpeed="0.00" departDelay="0.00" arrival="84.00" arrivalLane="edgeN_I_3" arrivalPos="588.90" arrivalSpeed="25.18" duration="61.00" routeLength="1294.98" waitingTime="0.00" waitingCount="0" stopTime="0.00" timeLoss="7.12" rerouteNo="0" devices="tripinfo_straightS_33" vType="vehicleS_33" speedFactor="0.97" vaporized=""/>
    <tripinfo id="straightS_28" depart="20.00" departLane="edgeS_O_4" departPos="5.71" departSpeed="0.00" departDelay="0.00" arrival="88.00" arrivalLane="edgeN_I_2" arrivalPos="588.90" arrivalSpeed="22.02" duration="68.00" routeLength="1294.30" waitingTime="0.00" waitingCount="0" stopTime="0.00" timeLoss="5.94" rerouteNo="0" devices="tripinfo_straightS_28" vType="vehicleS_28" speedFactor="0.85" vaporized=""/>
    <tripinfo id="rightN_35" depart="26.00" departLane="edgeN_O_1" departPos="4.51" departSpeed="0.00" departDelay="0.00" arrival="89.00" arrivalLane="edgeW_I_1" arrivalPos="379.30" arrivalSpeed="12.94" duration="63.00" routeLength="973.85" waitingTime="0.00" waitingCount="0" stopTime="0.00" timeLoss="9.72" rerouteNo="0" devices="tripinfo_rightN_35" vType="vehicleN_35" speedFactor="1.08" vaporized=""/>
    <tripinfo id="straightS_40" depart="29.00" departLane="edgeS_O_3" departPos="4.23" departSpeed="0.00" departDelay="0.00" arrival="89.00" arrivalLane="edgeN_I_3" arrivalPos="588.90" arrivalSpeed="24.05" duration="60.00" routeLength="1295.76" waitingTime="0.00" waitingCount="0" stopTime="0.00" timeLoss="5.44" rerouteNo="0" devices="tripinfo_straightS_40" vType="vehicleS_40" speedFactor="0.96" vaporized=""/>
    <tripinfo id="straightS_52" depart="39.00" departLane="edgeS_O_2" departPos="4.10" departSpeed="0.00" departDelay="0.00" arrival="89.00" arrivalLane="edgeN_I_4" arrivalPos="588.90" arrivalSpeed="31.70" duration="50.00" routeLength="1295.90" waitingTime="0.00" waitingCount="0" stopTime="0.00" timeLoss="7.84" rerouteNo="0" devices="tripinfo_straightS_52" vType="vehicleS_52" speedFactor="1.24" vaporized=""/>
    <tripinfo id="straightS_37" depart="27.00" departLane="edgeS_O_4" departPos="4.53" departSpeed="0.00" departDelay="0.00" arrival="92.00" arrivalLane="edgeN_I_2" arrivalPos="588.90" arrivalSpeed="24.20" duration="65.00" routeLength="1295.47" waitingTime="0.00" waitingCount="0" stopTime="0.00" timeLoss="7.66" rerouteNo="0" devices="tripinfo_straightS_37" vType="vehicleS_37" speedFactor="0.92" vaporized=""/>
    <tripinfo id="straightN_36" depart="27.00" departLane="edgeN_O_2" departPos="4.51" departSpeed="0.00" departDelay="0.00" arrival="93.00" arrivalLane="edgeS_I_1" arrivalPos="688.90" arrivalSpeed="21.90" duration="66.00" routeLength="1295.49" waitingTime="0.00" waitingCount="0" stopTime="0.00" timeLoss="5.82" rerouteNo="0" devices="tripinfo_straightN_36" vType="vehicleN_36" speedFactor="0.86" vaporized=""/>
    <tripinfo id="straightS_41" depart="30.00" departLane="edgeS_O_2" departPos="5.42" departSpeed="0.00" departDelay="0.00" arrival="93.00" arrivalLane="edgeN_I_3" arrivalPos="588.90" arrivalSpeed="23.85" duration="63.00" routeLength="1294.58" waitingTime="0.00" waitingCount="0" stopTime="0.00" timeLoss="7.43" rerouteNo="0" devices="tripinfo_straightS_41" vType="vehicleS_41" speedFactor="0.94" vaporized=""/>
    <tripinfo id="straightN_43" depart="31.00" departLane="edgeN_O_2" departPos="4.71" departSpeed="0.00" departDelay="0.00" arrival="93.00" arrivalLane="edgeS_I_3" arrivalPos="688.90" arrivalSpeed="24.70" duration="62.00" routeLength="1295.29" waitingTime="0.00" waitingCount="0" stopTime="0.00" timeLoss="7.52" rerouteNo="0" devices="tripinfo_straightN_43" vType="vehicleN_43" speedFactor="0.95" vaporized=""/>
    <tripinfo id="straightN_49" depart="36.00" departLane="edgeN_O_4" departPos="4.70" departSpeed="0.00" departDelay="0.00" arrival="95.00" arrivalLane="edgeS_I_4" arrivalPos="688.90" arrivalSpeed="24.67" duration="59.00" routeLength="1295.30" waitingTime="0.00" waitingCount="0" stopTime="0.00" timeLoss="6.13" rerouteNo="0" devices="tripinfo_straightN_49" vType="vehicleN_49" speedFactor="0.98" vaporized=""/>
    <tripinfo id="rightN_47" depart="34.00" departLane="edgeN_O_1" departPos="4.38" departSpeed="0.00" departDelay="0.00" arrival="104.00" arrivalLane="edgeW_I_1" arrivalPos="379.30" arrivalSpeed="11.27" duration="70.00" routeLength="973.98" waitingTime="0.00" waitingCount="0" stopTime="0.00" timeLoss="11.88" rerouteNo="0" devices="tripinfo_rightN_47" vType="vehicleN_47" speedFactor="0.99" vaporized=""/>
    <tripinfo id="leftS_19" depart="15.00" departLane="edgeS_O_4" departPos="4.10" departSpeed="0.00" departDelay="0.00" arrival="105.00" arrivalLane="edgeW_I_2" arrivalPos="379.30" arrivalSpeed="11.55" duration="90.00" routeLength="1095.69" waitingTime="17.00" waitingCount="1" stopTime="0.00" timeLoss="30.16" rerouteNo="0" devices="tripinfo_leftS_19" vType="vehicleS_19" speedFactor="1.06" vaporized=""/>
    <tripinfo id="leftN_31" depart="22.00" departLane="edgeN_O_5" departPos="5.18" departSpeed="0.00" departDelay="0.00" arrival="106.00" arrivalLane="edgeE_I_1" arrivalPos="379.30" arrivalSpeed="12.25" duration="84.00" routeLength="992.23" waitingTime="14.00" waitingCount="1" stopTime="0.00" timeLoss="28.44" rerouteNo="0" devices="tripinfo_leftN_31" vType="vehicleN_31" speedFactor="1.06" vaporized=""/>
    <tripinfo id="leftN_22" depart="19.00" departLane="edgeN_O_4" departPos="4.79" departSpeed="0.00" departDelay="2.00" arrival="111.00" arrivalLane="edgeE_I_1" arrivalPos="379.30" arrivalSpeed="11.89" duration="92.00" routeLength="995.00" waitingTime="20.00" waitingCount="2" stopTime="0.00" timeLoss="33.47" rerouteNo="0" devices="tripinfo_leftN_22" vType="vehicleN_22" speedFactor="1.00" vaporized=""/>
    <tripinfo id="leftN_45" depart="32.00" departLane="edgeN_O_5" departPos="5.37" departSpeed="0.00" departDelay="0.00" arrival="114.00" arrivalLane="edgeE_I_1" arrivalPos="379.30" arrivalSpeed="11.36" duration="82.00" routeLength="992.04" waitingTime="4.00" waitingCount="1" stopTime="0.00" timeLoss="21.34" rerouteNo="0" devices="tripinfo_leftN_45" vType="vehicleN_45" speedFactor="0.97" vaporized=""/>
    <tripinfo id="straightW_1" depart="0.00" departLane="edgeW_O_1" departPos="4.11" departSpeed="0.00" departDelay="0.00" arrival="125.00" arrivalLane="edgeE_I_1" arrivalPos="379.30" arrivalSpeed="12.45" duration="125.00" routeLength="795.89" waitingTime="61.00" waitingCount="1" stopTime="0.00" timeLoss="76.76" rerouteNo="0" devices="tripinfo_straightW_1" vType="vehicleW_1" speedFactor="1.02" vaporized=""/>
    <tripinfo id="straightE_4" depart="3.00" departLane="edgeE_O_1" departPos="5.47" departSpeed="0.00" departDelay="0.00" arrival="125.00" arrivalLane="edgeW_I_1" arrivalPos="379.30" arrivalSpeed="11.95" duration="122.00" routeLength="794.53" waitingTime="60.00" waitingCount="1" stopTime="0.00" timeLoss="72.95" rerouteNo="0" devices="tripinfo_straightE_4" vType="vehicleE_4" speedFactor="0.99" vaporized=""/>
    <tripinfo id="straightW_14" depart="10.00" departLane="edgeW_O_2" departPos="4.36" departSpeed="0.00" departDelay="0.00" arrival="125.00" arrivalLane="edgeE_I_2" arrivalPos="379.30" arrivalSpeed="12.30" duration="115.00" routeLength="795.64" waitingTime="54.00" waitingCount="1" stopTime="0.00" timeLoss="66.75" rerouteNo="0" devices="tripinfo_straightW_14" vType="vehicleW_14" speedFactor="1.01" vaporized=""/>
    <tripinfo id="straightE_7" depart="6.00" departLane="edgeE_O_1" departPos="4.34" departSpeed="0.00" departDelay="1.00" arrival="126.00" arrivalLane="edgeW_I_2" arrivalPos="379.30" arrivalSpeed="13.59" duration="120.00" routeLength="795.66" waitingTime="58.00" waitingCount="1" stopTime="0.00" timeLoss="76.62" rerouteNo="0" devices="tripinfo_straightE_7" vType="vehicleE_7" speedFactor="1.13" vaporized=""/>
    <tripinfo id="straightW_20" depart="16.00" departLane="edgeW_O_1" departPos="4.45" departSpeed="0.00" departDelay="1.00" arrival="127.00" arrivalLane="edgeE_I_2" arrivalPos="379.30" arrivalSpeed="12.89" duration="111.00" routeLength="795.55" waitingTime="48.00" waitingCount="1" stopTime="0.00" timeLoss="67.00" rerouteNo="0" devices="tripinfo_straightW_20" vType="vehicleW_20" speedFactor="1.11" vaporized=""/>
    <tripinfo id="straightE_17" depart="12.00" departLane="edgeE_O_1" departPos="4.18" departSpeed="0.00" departDelay="0.00" arrival="128.00" arrivalLane="edgeW_I_1" arrivalPos="379.30" arrivalSpeed="13.13" duration="116.00" routeLength="795.82" waitingTime="53.00" waitingCount="1" stopTime="0.00" timeLoss="70.86" rerouteNo="0" devices="tripinfo_straightE_17" vType="vehicleE_17" speedFactor="1.08" vaporized=""/>
    <tripinfo id="straightE_8" depart="6.00" departLane="edgeE_O_2" departPos="4.60" departSpeed="0.00" departDelay="0.00" arrival="130.00" arrivalLane="edgeW_I_1" arrivalPos="379.30" arrivalSpeed="10.28" duration="124.00" routeLength="795.40" waitingTime="52.00" waitingCount="1" stopTime="0.00" timeLoss="68.50" rerouteNo="0" devices="tripinfo_straightE_8" vType="vehicleE_8" speedFactor="0.87" vaporized=""/>
    <tripinfo id="straightW_29" depart="22.00" departLane="edgeW_O_1" departPos="4.87" departSpeed="0.00" departDelay="2.00" arrival="130.00" arrivalLane="edgeE_I_1" arrivalPos="379.30" arrivalSpeed="11.38" duration="108.00" routeLength="795.13" waitingTime="43.00" waitingCount="1" stopTime="0.00" timeLoss="58.02" rerouteNo="0" devices="tripinfo_straightW_29" vType="vehicleW_29" speedFactor="0.97" vaporized=""/>
    <tripinfo id="straightE_12" depart="9.00" departLane="edgeE_O_1" departPos="5.75" departSpeed="0.00" departDelay="1.00" arrival="131.00" arrivalLane="edgeW_I_2" arrivalPos="379.30" arrivalSpeed="13.45" duration="122.00" routeLength="794.25" waitingTime="51.00" waitingCount="1" stopTime="0.00" timeLoss="78.02" rerouteNo="0" devices="tripinfo_straightE_12" vType="vehicleE_12" speedFactor="1.11" vaporized=""/>
    <tripinfo id="straightE_23" depart="17.00" departLane="edgeE_O_1" departPos="4.64" departSpeed="0.00" departDelay="0.00" arrival="133.00" arrivalLane="edgeW_I_2" arrivalPos="379.30" arrivalSpeed="13.94" duration="116.00" routeLength="795.36" waitingTime="48.00" waitingCount="1" stopTime="0.00" timeLoss="74.71" rerouteNo="0" devices="tripinfo_straightE_23" vType="vehicleE_23" speedFactor="1.17" vaporized=""/>
    <tripinfo id="straightE_39" depart="30.00" departLane="edgeE_O_1" departPos="4.58" departSpeed="0.00" departDelay="2.00" arrival="133.00" arrivalLane="edgeW_I_1" arrivalPos="379.30" arrivalSpeed="10.01" duration="103.00" routeLength="795.42" waitingTime="36.00" waitingCount="1" stopTime="0.00" timeLoss="51.88" rerouteNo="0" devices="tripinfo_straightE_39" vType="vehicleE_39" speedFactor="0.95" vaporized=""/>
    <tripinfo id="straightW_46" depart="32.00" departLane="edgeW_O_1" departPos="4.36" departSpeed="0.00" departDelay="0.00" arrival="134.00" arrivalLane="edgeE_I_2" arrivalPos="379.30" arrivalSpeed="11.10" duration="102.00" routeLength="795.64" waitingTime="33.00" waitingCount="1" stopTime="0.00" timeLoss="50.00" rerouteNo="0" devices="tripinfo_straightW_46" vType="vehicleW_46" speedFactor="0.94" vaporized=""/>
    <tripinfo id="straightW_18" depart="13.00" departLane="edgeW_O_1" departPos="5.09" departSpeed="0.00" departDelay="0.00" arrival="135.00" arrivalLane="edgeE_I_1" arrivalPos="379.30" arrivalSpeed="8.46" duration="122.00" routeLength="794.91" waitingTime="49.00" waitingCount="1" stopTime="0.00" timeLoss="63.11" rerouteNo="0" devices="tripinfo_straightW_18" vType="vehicleW_18" speedFactor="0.82" vaporized=""/>
    <tripinfo id="straightE_38" depart="27.00" departLane="edgeE_O_1" departPos="5.26" departSpeed="0.00" departDelay="0.00" arrival="135.00" arrivalLane="edgeW_I_1" arrivalPos="379.30" arrivalSpeed="11.49" duration="108.00" routeLength="794.74" waitingTime="37.00" waitingCount="2" stopTime="0.00" timeLoss="56.70" rerouteNo="0" devices="tripinfo_straightE_38" vType="vehicleE_38" speedFactor="0.94" vaporized=""/>
    <tripinfo id="straightE_26" depart="18.00" departLane="edgeE_O_2" departPos="4.42" departSpeed="0.00" departDelay="0.00" arrival="136.00" arrivalLane="edgeW_I_2" arrivalPos="379.30" arrivalSpeed="11.54" duration="118.00" routeLength="795.58" waitingTime="45.00" waitingCount="1" stopTime="0.00" timeLoss="66.27" rerouteNo="0" devices="tripinfo_straightE_26" vType="vehicleE_26" speedFactor="0.94" vaporized=""/>
    <tripinfo id="straightW_48" depart="34.00" departLane="edgeW_O_2" departPos="4.62" departSpeed="0.00" departDelay="0.00" arrival="136.00" arrivalLane="edgeE_I_2" arrivalPos="379.30" arrivalSpeed="10.94" duration="102.00" routeLength="795.38" waitingTime="31.00" waitingCount="1" stopTime="0.00" timeLoss="49.49" rerouteNo="0" devices="tripinfo_straightW_48" vType="vehicleW_48" speedFactor="0.92" vaporized=""/>
    <tripinfo id="straightW_25" depart="18.00" departLane="edgeW_O_1" departPos="4.98" departSpeed="0.00" departDelay="0.00" arrival="137.00" arrivalLane="edgeE_I_1" arrivalPos="379.30" arrivalSpeed="10.95" duration="119.00" routeLength="795.02" waitingTime="42.00" waitingCount="1" stopTime="0.00" timeLoss="66.98" rerouteNo="0" devices="tripinfo_straightW_25" vType="vehicleW_25" speedFactor="0.93" vaporized=""/>
    <tripinfo id="straightE_42" depart="30.00" departLane="edgeE_O_2" departPos="5.42" departSpeed="0.00" departDelay="0.00" arrival="138.00" arrivalLane="edgeW_I_2" arrivalPos="379.30" arrivalSpeed="11.79" duration="108.00" routeLength="794.58" waitingTime="33.00" waitingCount="1" stopTime="0.00" timeLoss="62.12" rerouteNo="0" devices="tripinfo_straightE_42" vType="vehicleE_42" speedFactor="1.06" vaporized=""/>
    <tripinfo id="straightE_50" depart="36.00" departLane="edgeE_O_2" departPos="4.79" departSpeed="0.00" departDelay="0.00" arrival="139.00" arrivalLane="edgeW_I_1" arrivalPos="379.30" arrivalSpeed="9.93" duration="103.00" routeLength="795.21" waitingTime="30.00" waitingCount="1" stopTime="0.00" timeLoss="48.97" rerouteNo="0" devices="tripinfo_straightE_50" vType="vehicleE_50" speedFactor="0.90" vaporized=""/>
    <tripinfo id="straightW_59" depart="46.00" departLane="edgeW_O_2" departPos="5.04" departSpeed="0.00" departDelay="0.00" arrival="139.00" arrivalLane="edgeE_I_2" arrivalPos="379.30" arrivalSpeed="10.16" duration="93.00" routeLength="794.96" waitingTime="22.00" waitingCount="1" stopTime="0.00" timeLoss="38.21" rerouteNo="0" devices="tripinfo_straightW_59" vType="vehicleW_59" speedFactor="0.88" vaporized=""/>
    <tripinfo id="straightW_34" depart="24.00" departLane="edgeW_O_1" departPos="5.56" departSpeed="0.00" departDelay="1.00" arrival="140.00" arrivalLane="edgeE_I_1" arrivalPos="379.30" arrivalSpeed="10.07" duration="116.00" routeLength="794.44" waitingTime="41.00" waitingCount="1" stopTime="0.00" timeLoss="63.97" rerouteNo="0" devices="tripinfo_straightW_34" vType="vehicleW_34" speedFactor="0.94" vaporized=""/>
    <tripinfo id="straightE_44" depart="32.00" departLane="edgeE_O_2" departPos="4.45" departSpeed="0.00" departDelay="1.00" arrival="141.00" arrivalLane="edgeW_I_2" arrivalPos="379.30" arrivalSpeed="10.71" duration="109.00" routeLength="795.55" waitingTime="31.00" waitingCount="1" stopTime="0.00" timeLoss="55.93" rerouteNo="0" devices="tripinfo_straightE_44" vType="vehicleE_44" speedFactor="0.92" vaporized=""/>
    <tripinfo id="straightE_51" depart="38.00" departLane="edgeE_O_1" departPos="5.11" departSpeed="0.00" departDelay="0.00" arrival="141.00" arrivalLane="edgeW_I_1" arrivalPos="379.30" arrivalSpeed="12.36" duration="103.00" routeLength="794.89" waitingTime="31.00" waitingCount="1" stopTime="0.00" timeLoss="55.45" rerouteNo="0" devices="tripinfo_straightE_51" vType="vehicleE_51" speedFactor="1.02" vaporized=""/>
    <tripinfo id="straightW_56" depart="45.00" departLane="edgeW_O_1" departPos="5.27" departSpeed="0.00" departDelay="0.00" arrival="142.00" arrivalLane="edgeE_I_1" arrivalPos="379.30" arrivalSpeed="10.66" duration="97.00" routeLength="794.73" waitingTime="21.00" waitingCount="1" stopTime="0.00" timeLoss="46.11" rerouteNo="0" devices="tripinfo_straightW_56" vType="vehicleW_56" speedFactor="0.96" vaporized=""/>
    <tripinfo id="straightW_60" depart="48.00" departLane="edgeW_O_2" departPos="4.80" departSpeed="0.00" departDelay="0.00" arrival="144.00" arrivalLane="edgeE_I_2" arrivalPos="379.30" arrivalSpeed="9.97" duration="96.00" routeLength="795.20" waitingTime="17.00" waitingCount="1" stopTime="0.00" timeLoss="36.76" rerouteNo="0" devices="tripinfo_straightW_60" vType="vehicleW_60" speedFactor="0.81" vaporized=""/>
    <tripinfo id="straightW_64" depart="51.00" departLane="edgeW_O_1" departPos="5.69" departSpeed="0.00" departDelay="0.00" arrival="144.00" arrivalLane="edgeE_I_1" arrivalPos="379.30" arrivalSpeed="11.07" duration="93.00" routeLength="794.31" waitingTime="13.00" waitingCount="1" stopTime="0.00" timeLoss="42.17" rerouteNo="0" devices="tripinfo_straightW_64" vType="vehicleW_64" speedFactor="0.96" vaporized=""/>
    <tripinfo id="straightE_57" depart="45.00" departLane="edgeE_O_2" departPos="5.24" departSpeed="0.00" departDelay="0.00" arrival="145.00" arrivalLane="edgeW_I_2" arrivalPos="379.30" arrivalSpeed="10.86" duration="100.00" routeLength="794.76" waitingTime="22.00" waitingCount="1" stopTime="0.00" timeLoss="47.62" rerouteNo="0" devices="tripinfo_straightE_57" vType="vehicleE_57" speedFactor="0.92" vaporized=""/>
    <tripinfo id="straightW_83" depart="64.00" departLane="edgeW_O_1" departPos="5.01" departSpeed="0.00" departDelay="0.00" arrival="145.00" arrivalLane="edgeE_I_1" arrivalPos="379.30" arrivalSpeed="13.43" duration="81.00" routeLength="794.99" waitingTime="3.00" waitingCount="1" stopTime="0.00" timeLoss="37.56" rerouteNo="0" devices="tripinfo_straightW_83" vType="vehicleW_83" speedFactor="1.11" vaporized=""/>
    <tripinfo id="straightW_75" depart="60.00" departLane="edgeW_O_2" departPos="4.58" departSpeed="0.00" departDelay="0.00" arrival="146.00" arrivalLane="edgeE_I_2" arrivalPos="379.30" arrivalSpeed="12.74" duration="86.00" routeLength="795.42" waitingTime="12.00" waitingCount="1" stopTime="0.00" timeLoss="39.48" rerouteNo="0" devices="tripinfo_straightW_75" vType="vehicleW_75" speedFactor="1.05" vaporized=""/>
    <tripinfo id="straightE_53" depart="41.00" departLane="edgeE_O_1" departPos="5.23" departSpeed="0.00" departDelay="1.00" arrival="147.00" arrivalLane="edgeW_I_1" arrivalPos="379.30" arrivalSpeed="8.13" duration="106.00" routeLength="794.77" waitingTime="23.00" waitingCount="2" stopTime="0.00" timeLoss="46.02" rerouteNo="0" devices="tripinfo_straightE_53" vType="vehicleE_53" speedFactor="0.81" vaporized=""/>
    <tripinfo id="straightE_61" depart="50.00" departLane="edgeE_O_2" departPos="5.53" departSpeed="0.00" departDelay="0.00" arrival="147.00" arrivalLane="edgeW_I_2" arrivalPos="379.30" arrivalSpeed="11.87" duration="97.00" routeLength="794.47" waitingTime="20.00" waitingCount="1" stopTime="0.00" timeLoss="49.42" rerouteNo="0" devices="tripinfo_straightE_61" vType="vehicleE_61" speedFactor="1.02" vaporized=""/>
    <tripinfo id="straightW_94" depart="73.00" departLane="edgeW_O_1" departPos="5.71" departSpeed="0.00" departDelay="0.00" arrival="147.00" arrivalLane="edgeE_I_1" arrivalPos="379.30" arrivalSpeed="12.68" duration="74.00" routeLength="794.29" waitingTime="0.00" waitingCount="0" stopTime="0.00" timeLoss="28.26" rerouteNo="0" devices="tripinfo_straightW_94" vType="vehicleW_94" speedFactor="1.05" vaporized=""/>
    <tripinfo id="straightE_65" depart="51.00" departLane="edgeE_O_1" departPos="4.32" departSpeed="0.00" departDelay="0.00" arrival="149.00" arrivalLane="edgeW_I_1" arrivalPos="379.30" arrivalSpeed="11.14" duration="98.00" routeLength="795.68" waitingTime="18.00" waitingCount="1" stopTime="0.00" timeLoss="47.03" rerouteNo="0" devices="tripinfo_straightE_65" vType="vehicleE_65" speedFactor="0.96" vaporized=""/>
    <tripinfo id="straightE_72" depart="58.00" departLane="edgeE_O_2" departPos="4.61" departSpeed="0.00" departDelay="0.00" arrival="149.00" arrivalLane="edgeW_I_2" arrivalPos="379.30" arrivalSpeed="11.58" duration="91.00" routeLength="795.39" waitingTime="16.00" waitingCount="1" stopTime="0.00" timeLoss="44.28" rerouteNo="0" devices="tripinfo_straightE_72" vType="vehicleE_72" speedFactor="1.04" vaporized=""/>
    <tripinfo id="straightW_84" depart="67.00" departLane="edgeW_O_1" departPos="4.79" departSpeed="0.00" departDelay="2.00" arrival="149.00" arrivalLane="edgeE_I_2" arrivalPos="379.30" arrivalSpeed="10.82" duration="82.00" routeLength="795.21" waitingTime="0.00" waitingCount="0" stopTime="0.00" timeLoss="28.13" rerouteNo="0" devices="tripinfo_straightW_84" vType="vehicleW_84" speedFactor="0.91" vaporized=""/>
    <tripinfo id="straightE_67" depart="53.00" departLane="edgeE_O_2" departPos="4.59" departSpeed="0.00" departDelay="1.00" arrival="150.00" arrivalLane="edgeW_I_1" arrivalPos="379.30" arrivalSpeed="12.70" duration="97.00" routeLength="795.41" waitingTime="15.00" waitingCount="1" stopTime="0.00" timeLoss="56.09" rerouteNo="0" devices="tripinfo_straightE_67" vType="vehicleE_67" speedFactor="1.18" vaporized=""/>
    <tripinfo id="straightW_91" depart="71.00" departLane="edgeW_O_2" departPos="5.34" departSpeed="0.00" departDelay="0.00" arrival="150.00" arrivalLane="edgeE_I_2" arrivalPos="379.30" arrivalSpeed="13.40" duration="79.00" routeLength="794.65" waitingTime="0.00" waitingCount="0" stopTime="0.00" timeLoss="37.43" rerouteNo="0" devices="tripinfo_straightW_91" vType="vehicleW_91" speedFactor="1.17" vaporized=""/>
    <tripinfo id="straightW_95" depart="75.00" departLane="edgeW_O_1" departPos="5.34" departSpeed="0.00" departDelay="1.00" arrival="150.00" arrivalLane="edgeE_I_1" arrivalPos="379.30" arrivalSpeed="10.74" duration="75.00" routeLength="794.65" waitingTime="1.00" waitingCount="1" stopTime="0.00" timeLoss="21.26" rerouteNo="0" devices="tripinfo_straightW_95" vType="vehicleW_95" speedFactor="0.90" vaporized=""/>