<?xml version="1.0" encoding="UTF-8"?>

<!-- generated on 2021-10-23 05:39:53 by Eclipse SUMO sumo Version 1.10.0
<configuration xmlns:xsi="http://www.w3.org/2001/XMLSchema-instance" xsi:noNamespaceSchemaLocation="http://sumo.dlr.de/xsd/sumoConfiguration.xsd">

    <input>
        <net-file value="data1/cross.net.xml"/>
        <route-files value="data1/cross.rou.xml"/>
        <additional-files value="data1/cross.tls.xml"/>
    </input>

    <output>
        <tripinfo-output value="data1/tripinfo.xml"/>
        <tripinfo-output.write-unfinished value="true"/>
    </output>

    <time>
        <begin value="0"/>
        <step-length value="1"/>
    </time>

    <processing>
        <threads value="5"/>
        <time-to-teleport value="-1"/>
    </processing>

    <report>
        <verbose value="true"/>
        <no-warnings value="true"/>
        <no-step-log value="true"/>
    </report>

    <traci_server>
        <remote-port value="49268"/>
    </traci_server>

    <gui_only>
        <gui-settings-file value="data1/viewsettings.xml"/>
        <tracker-interval value="1"/>
    </gui_only>

</configuration>
-->

<tripinfos xmlns:xsi="http://www.w3.org/2001/XMLSchema-instance" xsi:noNamespaceSchemaLocation="http://sumo.dlr.de/xsd/tripinfo_file.xsd">
    <tripinfo id="uturnS_3" depart="3.00" departLane="edgeS_O_5" departPos="4.51" departSpeed="0.00" departDelay="1.00" arrival="55.00" arrivalLane="edgeS_I_5" arrivalPos="282.50" arrivalSpeed="14.69" duration="52.00" routeLength="565.17" waitingTime="0.00" waitingCount="0" stopTime="0.00" timeLoss="8.76" rerouteNo="0" devices="tripinfo_uturnS_3" vType="vehicleS_3" speedFactor="0.92" vaporized=""/>
    <tripinfo id="rightS_6" depart="6.00" departLane="edgeS_O_1" departPos="4.22" departSpeed="0.00" departDelay="1.00" arrival="76.00" arrivalLane="edgeE_I_1" arrivalPos="979.30" arrivalSpeed="25.61" duration="70.00" routeLength="1267.74" waitingTime="1.00" waitingCount="1" stopTime="0.00" timeLoss="11.90" rerouteNo="0" devices="tripinfo_rightS_6" vType="vehicleS_6" speedFactor="1.16" vaporized=""/>
    <tripinfo id="leftE_16" depart="9.00" departLane="edgeE_O_3" departPos="4.99" departSpeed="0.00" departDelay="0.00" arrival="84.00" arrivalLane="edgeS_I_5" arrivalPos="282.50" arrivalSpeed="14.62" duration="75.00" routeLength="1290.23" waitingTime="0.00" waitingCount="0" stopTime="0.00" timeLoss="11.20" rerouteNo="0" devices="tripinfo_leftE_16" vType="vehicleE_16" speedFactor="0.98" vaporized=""/>
    <tripinfo id="uturnW_4" depart="3.00" departLane="edgeW_O_4" departPos="4.58" departSpeed="0.00" departDelay="0.00" arrival="87.00" arrivalLane="edgeW_I_4" arrivalPos="479.30" arrivalSpeed="25.53" duration="84.00" routeLength="958.70" waitingTime="30.00" waitingCount="1" stopTime="0.00" timeLoss="45.89" rerouteNo="0" devices="tripinfo_uturnW_4" vType="vehicleW_4" speedFactor="1.16" vaporized=""/>
    <tripinfo id="uturnW_28" depart="15.00" departLane="edgeW_O_4" departPos="4.69" departSpeed="0.00" departDelay="0.00" arrival="90.00" arrivalLane="edgeW_I_4" arrivalPos="479.30" arrivalSpeed="24.68" duration="75.00" routeLength="958.59" waitingTime="21.00" waitingCount="1" stopTime="0.00" timeLoss="36.24" rerouteNo="0" devices="tripinfo_uturnW_28" vType="vehicleW_28" speedFactor="1.15" vaporized=""/>
    <tripinfo id="straightS_15" depart="9.00" departLane="edgeS_O_5" departPos="5.54" departSpeed="0.00" departDelay="0.00" arrival="95.00" arrivalLane="edgeN_I_1" arrivalPos="982.50" arrivalSpeed="16.91" duration="86.00" routeLength="1294.46" waitingTime="0.00" waitingCount="0" stopTime="0.00" timeLoss="6.40" rerouteNo="0" devices="tripinfo_straightS_15" vType="vehicleS_15" speedFactor="1.04" vaporized=""/>
    <tripinfo id="uturnW_41" depart="20.00" departLane="edgeW_O_4" departPos="4.12" departSpeed="0.00" departDelay="0.00" arrival="95.00" arrivalLane="edgeW_I_4" arrivalPos="479.30" arrivalSpeed="21.48" duration="75.00" routeLength="959.16" waitingTime="12.00" waitingCount="1" stopTime="0.00" timeLoss="31.15" rerouteNo="0" devices="tripinfo_uturnW_41" vType="vehicleW_41" speedFactor="0.99" vaporized=""/>
    <tripinfo id="straightS_32" depart="17.00" departLane="edgeS_O_5" departPos="4.20" departSpeed="0.00" departDelay="0.00" arrival="96.00" arrivalLane="edgeN_I_2" arrivalPos="982.50" arrivalSpeed="18.27" duration="79.00" routeLength="1295.80" waitingTime="0.00" waitingCount="0" stopTime="0.00" timeLoss="6.17" rerouteNo="0" devices="tripinfo_straightS_32" vType="vehicleS_32" speedFactor="1.13" vaporized=""/>
    <tripinfo id="straightS_5" depart="4.00" departLane="edgeS_O_1" departPos="4.02" departSpeed="0.00" departDelay="0.00" arrival="99.00" arrivalLane="edgeN_I_1" arrivalPos="982.50" arrivalSpeed="14.86" duration="95.00" routeLength="1295.98" waitingTime="0.00" waitingCount="0" stopTime="0.00" timeLoss="8.19" rerouteNo="0" devices="tripinfo_straightS_5" vType="vehicleS_5" speedFactor="0.94" vaporized=""/>
    <tripinfo id="straightS_27" depart="17.00" departLane="edgeS_O_4" departPos="4.84" departSpeed="0.00" departDelay="2.00" arrival="100.00" arrivalLane="edgeN_I_3" arrivalPos="982.50" arrivalSpeed="17.82" duration="83.00" routeLength="1295.16" waitingTime="0.00" waitingCount="0" stopTime="0.00" timeLoss="7.39" rerouteNo="0" devices="tripinfo_straightS_27" vType="vehicleS_27" speedFactor="1.09" vaporized=""/>
    <tripinfo id="straightS_0" depart="0.00" departLane="edgeS_O_5" departPos="4.32" departSpeed="0.00" departDelay="0.00" arrival="102.00" arrivalLane="edgeN_I_1" arrivalPos="982.50" arrivalSpeed="13.05" duration="102.00" routeLength="1295.68" waitingTime="0.00" waitingCount="0" stopTime="0.00" timeLoss="8.26" rerouteNo="0" devices="tripinfo_straightS_0" vType="vehicleS_0" speedFactor="0.88" vaporized=""/>
    <tripinfo id="straightS_23" depart="13.00" departLane="edgeS_O_3" departPos="5.00" departSpeed="0.00" departDelay="0.00" arrival="102.00" arrivalLane="edgeN_I_3" arrivalPos="982.50" arrivalSpeed="17.29" duration="89.00" routeLength="1295.00" waitingTime="0.00" waitingCount="0" stopTime="0.00" timeLoss="11.96" rerouteNo="0" devices="tripinfo_straightS_23" vType="vehicleS_23" speedFactor="1.07" vaporized=""/>
    <tripinfo id="uturnW_50" depart="26.00" departLane="edgeW_O_4" departPos="4.53" departSpeed="0.00" departDelay="0.00" arrival="102.00" arrivalLane="edgeW_I_3" arrivalPos="479.30" arrivalSpeed="20.87" duration="76.00" routeLength="958.75" waitingTime="9.00" waitingCount="1" stopTime="0.00" timeLoss="30.04" rerouteNo="0" devices="tripinfo_uturnW_50" vType="vehicleW_50" speedFactor="0.96" vaporized=""/>
    <tripinfo id="straightS_20" depart="11.00" departLane="edgeS_O_5" departPos="5.05" departSpeed="0.00" departDelay="0.00" arrival="103.00" arrivalLane="edgeN_I_2" arrivalPos="982.50" arrivalSpeed="14.73" duration="92.00" routeLength="1294.95" waitingTime="0.00" waitingCount="0" stopTime="0.00" timeLoss="7.37" rerouteNo="0" devices="tripinfo_straightS_20" vType="vehicleS_20" speedFactor="0.97" vaporized=""/>
    <tripinfo id="straightS_8" depart="6.00" departLane="edgeS_O_3" departPos="5.23" departSpeed="0.00" departDelay="0.00" arrival="106.00" arrivalLane="edgeN_I_1" arrivalPos="982.50" arrivalSpeed="14.84" duration="100.00" routeLength="1294.77" waitingTime="0.00" waitingCount="0" stopTime="0.00" timeLoss="7.98" rerouteNo="0" devices="tripinfo_straightS_8" vType="vehicleS_8" speedFactor="0.89" vaporized=""/>
    <tripinfo id="straightS_25" depart="14.00" departLane="edgeS_O_4" departPos="4.10" departSpeed="0.00" departDelay="0.00" arrival="108.00" arrivalLane="edgeN_I_2" arrivalPos="982.50" arrivalSpeed="15.69" duration="94.00" routeLength="1295.90" waitingTime="0.00" waitingCount="0" stopTime="0.00" timeLoss="7.98" rerouteNo="0" devices="tripinfo_straightS_25" vType="vehicleS_25" speedFactor="0.95" vaporized=""/>
    <tripinfo id="uturnW_53" depart="28.00" departLane="edgeW_O_4" departPos="4.39" departSpeed="0.00" departDelay="1.00" arrival="108.00" arrivalLane="edgeW_I_3" arrivalPos="479.30" arrivalSpeed="20.25" duration="80.00" routeLength="958.89" waitingTime="7.00" waitingCount="2" stopTime="0.00" timeLoss="33.01" rerouteNo="0" devices="tripinfo_uturnW_53" vType="vehicleW_53" speedFactor="0.94" vaporized=""/>
    <tripinfo id="straightS_30" depart="20.00" departLane="edgeS_O_4" departPos="4.30" departSpeed="0.00" departDelay="4.00" arrival="109.00" arrivalLane="edgeN_I_1" arrivalPos="982.50" arrivalSpeed="17.22" duration="89.00" routeLength="1295.70" waitingTime="0.00" waitingCount="0" stopTime="0.00" timeLoss="11.30" rerouteNo="0" devices="tripinfo_straightS_30" vType="vehicleS_30" speedFactor="1.06" vaporized=""/>
    <tripinfo id="uturnW_81" depart="41.00" departLane="edgeW_O_4" departPos="4.28" departSpeed="0.00" departDelay="0.00" arrival="115.00" arrivalLane="edgeW_I_3" arrivalPos="479.30" arrivalSpeed="20.41" duration="74.00" routeLength="959.00" waitingTime="0.00" waitingCount="0" stopTime="0.00" timeLoss="25.83" rerouteNo="0" devices="tripinfo_uturnW_81" vType="vehicleW_81" speedFactor="0.92" vaporized=""/>
    <tripinfo id="straightE_7" depart="5.00" departLane="edgeE_O_3" departPos="4.22" departSpeed="0.00" departDelay="0.00" arrival="118.00" arrivalLane="edgeW_I_2" arrivalPos="479.30" arrivalSpeed="22.82" duration="113.00" routeLength="1495.78" waitingTime="36.00" waitingCount="1" stopTime="0.00" timeLoss="51.58" rerouteNo="0" devices="tripinfo_straightE_7" vType="vehicleE_7" speedFactor="1.08" vaporized=""/>
    <tripinfo id="uturnE_29" depart="15.00" departLane="edgeE_O_4" departPos="5.34" departSpeed="0.00" departDelay="0.00" arrival="118.00" arrivalLane="edgeE_I_1" arrivalPos="979.30" arrivalSpeed="21.15" duration="103.00" routeLength="1957.93" waitingTime="0.00" waitingCount="0" stopTime="0.00" timeLoss="10.96" rerouteNo="0" devices="tripinfo_uturnE_29" vType="vehicleE_29" speedFactor="0.95" vaporized=""/>
    <tripinfo id="straightE_11" depart="7.00" departLane="edgeE_O_2" departPos="4.55" departSpeed="0.00" departDelay="0.00" arrival="119.00" arrivalLane="edgeW_I_1" arrivalPos="479.30" arrivalSpeed="20.63" duration="112.00" routeLength="1495.45" waitingTime="28.00" waitingCount="1" stopTime="0.00" timeLoss="42.52" rerouteNo="0" devices="tripinfo_straightE_11" vType="vehicleE_11" speedFactor="0.96" vaporized=""/>
    <tripinfo id="rightW_22" depart="12.00" departLane="edgeW_O_1" departPos="4.70" departSpeed="0.00" departDelay="0.00" arrival="119.00" arrivalLane="edgeS_I_1" arrivalPos="282.50" arrivalSpeed="12.75" duration="107.00" routeLength="767.26" waitingTime="45.00" waitingCount="1" stopTime="0.00" timeLoss="58.33" rerouteNo="0" devices="tripinfo_rightW_22" vType="vehicleW_22" speedFactor="0.81" vaporized=""/>
    <tripinfo id="straightE_44" depart="21.00" departLane="edgeE_O_2" departPos="4.16" departSpeed="0.00" departDelay="0.00" arrival="120.00" arrivalLane="edgeW_I_3" arrivalPos="479.30" arrivalSpeed="21.30" duration="99.00" routeLength="1495.84" waitingTime="16.00" waitingCount="1" stopTime="0.00" timeLoss="33.26" rerouteNo="0" devices="tripinfo_straightE_44" vType="vehicleE_44" speedFactor="1.01" vaporized=""/>
    <tripinfo id="rightW_63" depart="34.00" departLane="edgeW_O_1" departPos="4.91" departSpeed="0.00" departDelay="3.00" arrival="122.00" arrivalLane="edgeS_I_1" arrivalPos="282.50" arrivalSpeed="15.77" duration="88.00" routeLength="767.05" waitingTime="26.00" waitingCount="1" stopTime="0.00" timeLoss="49.04" rerouteNo="0" devices="tripinfo_rightW_63" vType="vehicleW_63" speedFactor="1.04" vaporized=""/>
    <tripinfo id="straightE_33" depart="17.00" departLane="edgeE_O_3" departPos="4.03" departSpeed="0.00" departDelay="0.00" arrival="123.00" arrivalLane="edgeW_I_2" arrivalPos="479.30" arrivalSpeed="18.82" duration="106.00" routeLength="1495.97" waitingTime="17.00" waitingCount="1" stopTime="0.00" timeLoss="32.49" rerouteNo="0" devices="tripinfo_straightE_33" vType="vehicleE_33" speedFactor="0.90" vaporized=""/>
    <tripinfo id="straightE_36" depart="20.00" departLane="edgeE_O_3" departPos="4.82" departSpeed="0.00" departDelay="2.00" arrival="124.00" arrivalLane="edgeW_I_3" arrivalPos="479.30" arrivalSpeed="19.46" duration="104.00" routeLength="1495.18" waitingTime="15.00" waitingCount="1" stopTime="0.00" timeLoss="32.46" rerouteNo="0" devices="tripinfo_straightE_36" vType="vehicleE_36" speedFactor="0.93" vaporized=""/>
    <tripinfo id="straightE_51" depart="26.00" departLane="edgeE_O_2" departPos="4.61" departSpeed="0.00" departDelay="0.00" arrival="124.00" arrivalLane="edgeW_I_4" arrivalPos="479.30" arrivalSpeed="21.33" duration="98.00" routeLength="1495.39" waitingTime="11.00" waitingCount="1" stopTime="0.00" timeLoss="30.97" rerouteNo="0" devices="tripinfo_straightE_51" vType="vehicleE_51" speedFactor="0.99" vaporized=""/>
    <tripinfo id="straightE_64" depart="31.00" departLane="edgeE_O_1" departPos="3.95" departSpeed="0.00" departDelay="0.00" arrival="125.00" arrivalLane="edgeW_I_2" arrivalPos="479.30" arrivalSpeed="21.10" duration="94.00" routeLength="1496.05" waitingTime="3.00" waitingCount="1" stopTime="0.00" timeLoss="32.40" rerouteNo="0" devices="tripinfo_straightE_64" vType="vehicleE_64" speedFactor="1.08" vaporized=""/>
    <tripinfo id="straightE_90" depart="47.00" departLane="edgeE_O_2" departPos="4.52" departSpeed="0.00" departDelay="0.00" arrival="126.00" arrivalLane="edgeW_I_3" arrivalPos="479.30" arrivalSpeed="22.61" duration="79.00" routeLength="1495.48" waitingTime="0.00" waitingCount="0" stopTime="0.00" timeLoss="13.14" rerouteNo="0" devices="tripinfo_straightE_90" vType="vehicleE_90" speedFactor="1.02" vaporized=""/>
    <tripinfo id="rightW_66" depart="37.00" departLane="edgeW_O_1" departPos="5.06" departSpeed="0.00" departDelay="5.00" arrival="127.00" arrivalLane="edgeS_I_1" arrivalPos="282.50" arrivalSpeed="13.71" duration="90.00" routeLength="766.90" waitingTime="26.00" waitingCount="1" stopTime="0.00" timeLoss="47.13" rerouteNo="0" devices="tripinfo_rightW_66" vType="vehicleW_66" speedFactor="0.94" vaporized=""/>
    <tripinfo id="straightE_73" depart="36.00" departLane="edgeE_O_2" departPos="4.76" departSpeed="0.00" departDelay="0.00" arrival="127.00" arrivalLane="edgeW_I_1" arrivalPos="479.30" arrivalSpeed="20.13" duration="91.00" routeLength="1495.24" waitingTime="1.00" waitingCount="1" stopTime="0.00" timeLoss="17.45" rerouteNo="0" devices="tripinfo_straightE_73" vType="vehicleE_73" speedFactor="0.91" vaporized=""/>
    <tripinfo id="rightW_103" depart="56.00" departLane="edgeW_O_1" departPos="4.94" departSpeed="0.00" departDelay="2.00" arrival="129.00" arrivalLane="edgeS_I_2" arrivalPos="282.50" arrivalSpeed="18.01" duration="73.00" routeLength="767.02" waitingTime="14.00" waitingCount="1" stopTime="0.00" timeLoss="37.22" rerouteNo="0" devices="tripinfo_rightW_103" vType="vehicleW_103" speedFactor="1.10" vaporized=""/>
    <tripinfo id="straightE_104" depart="54.00" departLane="edgeE_O_2" departPos="5.12" departSpeed="0.00" departDelay="0.00" arrival="130.00" arrivalLane="edgeW_I_2" arrivalPos="479.30" arrivalSpeed="23.79" duration="76.00" routeLength="1494.88" waitingTime="0.00" waitingCount="0" stopTime="0.00" timeLoss="14.95" rerouteNo="0" devices="tripinfo_straightE_104" vType="vehicleE_104" speedFactor="1.09" vaporized=""/>
    <tripinfo id="rightW_97" depart="50.00" departLane="edgeW_O_1" departPos="5.53" departSpeed="0.00" departDelay="0.00" arrival="131.00" arrivalLane="edgeS_I_1" arrivalPos="282.50" arrivalSpeed="14.15" duration="81.00" routeLength="766.43" waitingTime="14.00" waitingCount="1" stopTime="0.00" timeLoss="34.82" rerouteNo="0" devices="tripinfo_rightW_97" vType="vehicleW_97" speedFactor="0.86" vaporized=""/>
    <tripinfo id="rightW_139" depart="74.00" departLane="edgeW_O_1" departPos="3.97" departSpeed="0.00" departDelay="0.00" arrival="134.00" arrivalLane="edgeS_I_1" arrivalPos="282.50" arrivalSpeed="15.58" duration="60.00" routeLength="767.99" waitingTime="0.00" waitingCount="0" stopTime="0.00" timeLoss="19.94" rerouteNo="0" devices="tripinfo_rightW_139" vType="vehicleW_139" speedFactor="0.99" vaporized=""/>
    <tripinfo id="straightE_111" depart="60.00" departLane="edgeE_O_1" departPos="5.50" departSpeed="0.00" departDelay="1.00" arrival="135.00" arrivalLane="edgeW_I_2" arrivalPos="479.30" arrivalSpeed="21.16" duration="75.00" routeLength="1494.50" waitingTime="0.00" waitingCount="0" stopTime="0.00" timeLoss="8.35" rerouteNo="0" devices="tripinfo_straightE_111" vType="vehicleE_111" speedFactor="1.00" vaporized=""/>
    <tripinfo id="uturnE_39" depart="19.00" departLane="edgeE_O_4" departPos="5.42" departSpeed="0.00" departDelay="0.00" arrival="140.00" arrivalLane="edgeE_I_1" arrivalPos="979.30" arrivalSpeed="17.69" duration="121.00" routeLength="1957.86" waitingTime="0.00" waitingCount="0" stopTime="0.00" timeLoss="12.58" rerouteNo="0" devices="tripinfo_uturnE_39" vType="vehicleE_39" speedFactor="0.81" vaporized=""/>
    <tripinfo id="rightW_155" depart="87.00" departLane="edgeW_O_1" departPos="4.61" departSpeed="0.00" departDelay="0.00" arrival="141.00" arrivalLane="edgeS_I_1" arrivalPos="282.50" arrivalSpeed="14.35" duration="54.00" routeLength="767.35" waitingTime="0.00" waitingCount="0" stopTime="0.00" timeLoss="10.56" rerouteNo="0" devices="tripinfo_rightW_155" vType="vehicleW_155" speedFactor="0.92" vaporized=""/>
    <tripinfo id="straightE_82" depart="42.00" departLane="edgeE_O_3" departPos="4.45" departSpeed="0.00" departDelay="1.00" arrival="142.00" arrivalLane="edgeW_I_2" arrivalPos="479.30" arrivalSpeed="23.03" duration="100.00" routeLength="1495.55" waitingTime="11.00" waitingCount="1" stopTime="0.00" timeLoss="39.49" rerouteNo="0" devices="tripinfo_straightE_82" vType="vehicleE_82" speedFactor="1.10" vaporized=""/>
    <tripinfo id="rightW_160" depart="90.00" departLane="edgeW_O_1" departPos="4.91" departSpeed="0.00" departDelay="0.00" arrival="142.00" arrivalLane="edgeS_I_2" arrivalPos="282.50" arrivalSpeed="17.84" duration="52.00" routeLength="767.05" waitingTime="0.00" waitingCount="0" stopTime="0.00" timeLoss="16.20" rerouteNo="0" devices="tripinfo_rightW_160" vType="vehicleW_160" speedFactor="1.12" vaporized=""/>
    <tripinfo id="straightW_13" depart="8.00" departLane="edgeW_O_1" departPos="4.73" departSpeed="0.00" departDelay="0.00" arrival="143.00" arrivalLane="edgeE_I_2" arrivalPos="979.30" arrivalSpeed="23.20" duration="135.00" routeLength="1495.27" waitingTime="53.00" waitingCount="1" stopTime="0.00" timeLoss="70.80" rerouteNo="0" devices="tripinfo_straightW_13" vType="vehicleW_13" speedFactor="1.05" vaporized=""/>
    <tripinfo id="leftW_72" depart="35.00" departLane="edgeW_O_4" departPos="4.53" departSpeed="0.00" departDelay="0.00" arrival="146.00" arrivalLane="edgeN_I_1" arrivalPos="982.50" arrivalSpeed="16.16" duration="111.00" routeLength="1490.69" waitingTime="6.00" waitingCount="1" stopTime="0.00" timeLoss="30.32" rerouteNo="0" devices="tripinfo_leftW_72" vType="vehicleW_72" speedFactor="1.03" vaporized=""/>
    <tripinfo id="straightE_125" depart="65.00" departLane="edgeE_O_1" departPos="4.43" departSpeed="0.00" departDelay="0.00" arrival="146.00" arrivalLane="edgeW_I_2" arrivalPos="479.30" arrivalSpeed="23.40" duration="81.00" routeLength="1495.57" waitingTime="0.00" waitingCount="0" stopTime="0.00" timeLoss="17.39" rerouteNo="0" devices="tripinfo_straightE_125" vType="vehicleE_125" speedFactor="1.06" vaporized=""/>
    <tripinfo id="straightW_2" depart="3.00" departLane="edgeW_O_1" departPos="4.41" departSpeed="0.00" departDelay="2.00" arrival="147.00" arrivalLane="edgeE_I_1" arrivalPos="979.30" arrivalSpeed="18.88" duration="144.00" routeLength="1495.59" waitingTime="55.00" waitingCount="1" stopTime="0.00" timeLoss="68.99" rerouteNo="0" devices="tripinfo_straightW_2" vType="vehicleW_2" speedFactor="0.89" vaporized=""/>
    <tripinfo id="straightW_26" depart="14.00" departLane="edgeW_O_2" departPos="5.07" departSpeed="0.00" departDelay="0.00" arrival="147.00" arrivalLane="edgeE_I_3" arrivalPos="979.30" arrivalSpeed="21.71" duration="133.00" routeLength="1494.93" waitingTime="48.00" waitingCount="1" stopTime="0.00" timeLoss="66.79" rerouteNo="0" devices="tripinfo_straightW_26" vType="vehicleW_26" speedFactor="1.02" vaporized=""/>
    <tripinfo id="straightW_43" depart="21.00" departLane="edgeW_O_2" departPos="5.47" departSpeed="0.00" departDelay="0.00" arrival="148.00" arrivalLane="edgeE_I_3" arrivalPos="979.30" arrivalSpeed="23.10" duration="127.00" routeLength="1494.53" waitingTime="38.00" waitingCount="1" stopTime="0.00" timeLoss="63.75" rerouteNo="0" devices="tripinfo_straightW_43" vType="vehicleW_43" speedFactor="1.06" vaporized=""/>
    <tripinfo id="straightW_54" depart="28.00" departLane="edgeW_O_1" departPos="4.91" departSpeed="0.00" departDelay="0.00" arrival="148.00" arrivalLane="edgeE_I_4" arrivalPos="979.30" arrivalSpeed="22.46" duration="120.00" routeLength="1495.09" waitingTime="36.00" waitingCount="1" stopTime="0.00" timeLoss="56.61" rerouteNo="0" devices="tripinfo_straightW_54" vType="vehicleW_54" speedFactor="1.06" vaporized=""/>
    <tripinfo id="straightE_127" depart="68.00" departLane="edgeE_O_1" departPos="4.19" departSpeed="0.00" departDelay="2.00" arrival="148.00" arrivalLane="edgeW_I_1" arrivalPos="479.30" arrivalSpeed="20.45" duration="80.00" routeLength="1495.81" waitingTime="0.00" waitingCount="0" stopTime="0.00" timeLoss="8.24" rerouteNo="0" devices="tripinfo_straightE_127" vType="vehicleE_127" speedFactor="0.93" vaporized=""/>
    <tripinfo id="straightW_10" depart="8.00" departLane="edgeW_O_3" departPos="4.36" departSpeed="0.00" departDelay="1.00" arrival="150.00" arrivalLane="edgeE_I_1" arrivalPos="979.30" arrivalSpeed="19.58" duration="142.00" routeLength="1495.64" waitingTime="50.00" waitingCount="1" stopTime="0.00" timeLoss="66.02" rerouteNo="0" devices="tripinfo_straightW_10" vType="vehicleW_10" speedFactor="0.88" vaporized=""/>
    <tripinfo id="leftW_35" depart="21.00" departLane="edgeW_O_3" departPos="5.44" departSpeed="0.00" departDelay="3.00" arrival="150.00" arrivalLane="edgeN_I_1" arrivalPos="982.50" arrivalSpeed="13.97" duration="129.00" routeLength="1489.78" waitingTime="9.00" waitingCount="1" stopTime="0.00" timeLoss="30.08" rerouteNo="0" devices="tripinfo_leftW_35" vType="vehicleW_35" speedFactor="0.84" vaporized=""/>
    <tripinfo id="straightE_134" depart="70.00" departLane="edgeE_O_3" departPos="4.98" departSpeed="0.00" departDelay="0.00" arrival="150.00" arrivalLane="edgeW_I_2" arrivalPos="479.30" arrivalSpeed="22.70" duration="80.00" routeLength="1495.02" waitingTime="0.00" waitingCount="0" stopTime="0.00" timeLoss="16.69" rerouteNo="0" devices="tripinfo_straightE_134" vType="vehicleE_134" speedFactor="1.06" vaporized=""/>
    <tripinfo id="straightW_60" depart="30.00" departLane="edgeW_O_3" departPos="4.30" departSpeed="0.00" departDelay="0.00" arrival="151.00" arrivalLane="edgeE_I_3" arrivalPos="979.30" arrivalSpeed="23.33" duration="121.00" routeLength="1495.70" waitingTime="31.00" waitingCount="2" stopTime="0.00" timeLoss="57.10" rerouteNo="0" devices="tripinfo_straightW_60" vType="vehicleW_60" speedFactor="1.06" vaporized=""/>
    <tripinfo id="straightW_57" depart="31.00" departLane="edgeW_O_1" departPos="4.49" departSpeed="0.00" departDelay="2.00" arrival="152.00" arrivalLane="edgeE_I_2" arrivalPos="979.30" arrivalSpeed="20.54" duration="121.00" routeLength="1495.51" waitingTime="31.00" waitingCount="1" stopTime="0.00" timeLoss="49.82" rerouteNo="0" devices="tripinfo_straightW_57" vType="vehicleW_57" speedFactor="0.94" vaporized=""/>
    <tripinfo id="straightW_1" depart="0.00" departLane="edgeW_O_1" departPos="3.99" departSpeed="0.00" departDelay="0.00" arrival="153.00" arrivalLane="edgeE_I_1" arrivalPos="979.30" arrivalSpeed="16.86" duration="153.00" routeLength="1496.01" waitingTime="56.00" waitingCount="1" stopTime="0.00" timeLoss="70.01" rerouteNo="0" devices="tripinfo_straightW_1" vType="vehicleW_1" speedFactor="0.81" vaporized=""/>
    <tripinfo id="rightE_19" depart="10.00" departLane="edgeE_O_1" departPos="5.53" departSpeed="0.00" departDelay="0.00" arrival="154.00" arrivalLane="edgeN_I_1" arrivalPos="982.50" arrivalSpeed="18.43" duration="144.00" routeLength="1966.43" waitingTime="27.00" waitingCount="1" stopTime="0.00" timeLoss="49.89" rerouteNo="0" devices="tripinfo_rightE_19" vType="vehicleE_19" speedFactor="1.11" vaporized=""/>
    <tripinfo id="straightW_68" depart="33.00" departLane="edgeW_O_2" departPos="5.35" departSpeed="0.00" departDelay="0.00" arrival="154.00" arrivalLane="edgeE_I_2" arrivalPos="979.30" arrivalSpeed="21.04" duration="121.00" routeLength="1494.65" waitingTime="33.00" waitingCount="1" stopTime="0.00" timeLoss="50.34" rerouteNo="0" devices="tripinfo_straightW_68" vType="vehicleW_68" speedFactor="0.95" vaporized=""/>
    <tripinfo id="straightW_47" depart="24.00" departLane="edgeW_O_2" departPos="4.12" departSpeed="0.00" departDelay="1.00" arrival="155.00" arrivalLane="edgeE_I_1" arrivalPos="979.30" arrivalSpeed="18.96" duration="131.00" routeLength="1495.88" waitingTime="36.00" waitingCount="1" stopTime="0.00" timeLoss="67.18" rerouteNo="0" devices="tripinfo_straightW_47" vType="vehicleW_47" speedFactor="1.06" vaporized=""/>
    <tripinfo id="straightE_145" depart="78.00" departLane="edgeE_O_2" departPos="4.86" departSpeed="0.00" departDelay="0.00" arrival="156.00" arrivalLane="edgeW_I_2" arrivalPos="479.30" arrivalSpeed="21.21" duration="78.00" routeLength="1495.14" waitingTime="0.00" waitingCount="0" stopTime="0.00" timeLoss="12.32" rerouteNo="0" devices="tripinfo_straightE_145" vType="vehicleE_145" speedFactor="1.02" vaporized=""/>
    <tripinfo id="straightW_143" depart="76.00" departLane="edgeW_O_2" departPos="5.07" departSpeed="0.00" departDelay="0.00" arrival="157.00" arrivalLane="edgeE_I_3" arrivalPos="979.30" arrivalSpeed="24.01" duration="81.00" routeLength="1494.93" waitingTime="0.00" waitingCount="0" stopTime="0.00" timeLoss="19.38" rerouteNo="0" devices="tripinfo_straightW_143" vType="vehicleW_143" speedFactor="1.10" vaporized=""/>
    <tripinfo id="rightW_181" depart="101.00" departLane="edgeW_O_1" departPos="4.52" departSpeed="0.00" departDelay="0.00" arrival="157.00" arrivalLane="edgeS_I_1" arrivalPos="282.50" arrivalSpeed="13.82" duration="56.00" routeLength="767.44" waitingTime="0.00" waitingCount="0" stopTime="0.00" timeLoss="9.16" rerouteNo="0" devices="tripinfo_rightW_181" vType="vehicleW_181" speedFactor="0.85" vaporized=""/>
    <tripinfo id="straightW_79" depart="40.00" departLane="edgeW_O_3" departPos="4.56" departSpeed="0.00" departDelay="0.00" arrival="158.00" arrivalLane="edgeE_I_1" arrivalPos="979.30" arrivalSpeed="20.20" duration="118.00" routeLength="1495.44" waitingTime="23.00" waitingCount="2" stopTime="0.00" timeLoss="46.32" rerouteNo="0" devices="tripinfo_straightW_79" vType="vehicleW_79" speedFactor="0.94" vaporized=""/>
    <tripinfo id="straightW_137" depart="72.00" departLane="edgeW_O_2" departPos="4.40" departSpeed="0.00" departDelay="0.00" arrival="161.00" arrivalLane="edgeE_I_1" arrivalPos="979.30" arrivalSpeed="19.97" duration="89.00" routeLength="1495.60" waitingTime="0.00" waitingCount="0" stopTime="0.00" timeLoss="17.59" rerouteNo="0" devices="tripinfo_straightW_137" vType="vehicleW_137" speedFactor="0.93" vaporized=""/>
    <tripinfo id="rightW_206" depart="112.00" departLane="edgeW_O_1" departPos="4.02" departSpeed="0.00" departDelay="0.00" arrival="161.00" arrivalLane="edgeS_I_1" arrivalPos="282.50" arrivalSpeed="17.63" duration="49.00" routeLength="767.94" waitingTime="0.00" waitingCount="0" stopTime="0.00" timeLoss="11.63" rerouteNo="0" devices="tripinfo_rightW_206" vType="vehicleW_206" speedFactor="1.08" vaporized=""/>
    <tripinfo id="rightE_55" depart="28.00" departLane="edgeE_O_1" departPos="5.09" departSpeed="0.00" departDelay="0.00" arrival="163.00" arrivalLane="edgeN_I_1" arrivalPos="982.50" arrivalSpeed="15.10" duration="135.00" routeLength="1966.87" waitingTime="11.00" waitingCount="1" stopTime="0.00" timeLoss="30.67" rerouteNo="0" devices="tripinfo_rightE_55" vType="vehicleE_55" speedFactor="1.00" vaporized=""/>
    <tripinfo id="rightE_107" depart="57.00" departLane="edgeE_O_1" departPos="5.57" departSpeed="0.00" departDelay="0.00" arrival="165.00" arrivalLane="edgeN_I_2" arrivalPos="982.50" arrivalSpeed="18.21" duration="108.00" routeLength="1966.39" waitingTime="0.00" waitingCount="0" stopTime="0.00" timeLoss="15.29" rerouteNo="0" devices="tripinfo_rightE_107" vType="vehicleE_107" speedFactor="1.11" vaporized=""/>
    <tripinfo id="straightW_120" depart="65.00" departLane="edgeW_O_1" departPos="5.32" departSpeed="0.00" departDelay="2.00" arrival="166.00" arrivalLane="edgeE_I_1" arrivalPos="979.30" arrivalSpeed="18.36" duration="101.00" routeLength="1494.68" waitingTime="3.00" waitingCount="1" stopTime="0.00" timeLoss="21.88" rerouteNo="0" devices="tripinfo_straightW_120" vType="vehicleW_120" speedFactor="0.85" vaporized=""/>
    <tripinfo id="straightW_153" depart="85.00" departLane="edgeW_O_3" departPos="4.92" departSpeed="0.00" departDelay="0.00" arrival="166.00" arrivalLane="edgeE_I_2" arrivalPos="979.30" arrivalSpeed="19.99" duration="81.00" routeLength="1495.07" waitingTime="0.00" waitingCount="0" stopTime="0.00" timeLoss="9.32" rerouteNo="0" devices="tripinfo_straightW_153" vType="vehicleW_153" speedFactor="0.93" vaporized=""/>
    <tripinfo id="straightW_31" depart="18.00" departLane="edgeW_O_3" departPos="5.50" departSpeed="0.00" departDelay="2.00" arrival="168.00" arrivalLane="edgeE_I_3" arrivalPos="979.30" arrivalSpeed="20.82" duration="150.00" routeLength="1494.50" waitingTime="55.00" waitingCount="2" stopTime="0.00" timeLoss="81.95" rerouteNo="0" devices="tripinfo_straightW_31" vType="vehicleW_31" speedFactor="0.99" vaporized=""/>